DF-ISE text

Info {
  version = 1.1
  type    = boundary
  dimension   = 3
  nb_vertices = 32
  nb_edges    = 96
  nb_faces    = 72
  nb_elements = 7
  nb_regions  = 7
  regions     = [ "region_5" "region_6" "region_7" "region_1" "region_2" "region_3" "region_4" ]
  materials   = [ Silicon Silicon Silicon Silicon Silicon Silicon Silicon ]
}

Data {

  CoordSystem {
    translate = [  0.000000000000000e+00 0.000000000000000e+00 0.000000000000000e+00 ]
    transform = [  1.000000000000000e+00 0.000000000000000e+00 0.000000000000000e+00
 0.000000000000000e+00 1.000000000000000e+00 0.000000000000000e+00
 0.000000000000000e+00 0.000000000000000e+00 1.000000000000000e+00
 ]
  }

  Vertices (32) {
 3.000000000000000e+00 1.000000000000000e+00 1.000000000000000e+00
 3.000000000000000e+00 1.000000000000000e+00 0.000000000000000e+00
 4.000000000000000e+00 1.000000000000000e+00 0.000000000000000e+00
 4.000000000000000e+00 1.000000000000000e+00 1.000000000000000e+00
 4.000000000000000e+00 0.000000000000000e+00 1.000000000000000e+00
 4.000000000000000e+00 0.000000000000000e+00 0.000000000000000e+00
 3.000000000000000e+00 0.000000000000000e+00 0.000000000000000e+00
 3.000000000000000e+00 0.000000000000000e+00 1.000000000000000e+00
 2.000000000000000e+00 1.000000000000000e+00 1.000000000000000e+00
 2.000000000000000e+00 1.000000000000000e+00 0.000000000000000e+00
 2.000000000000000e+00 0.000000000000000e+00 0.000000000000000e+00
 2.000000000000000e+00 0.000000000000000e+00 1.000000000000000e+00
 1.000000000000000e+00 1.000000000000000e+00 1.000000000000000e+00
 1.000000000000000e+00 1.000000000000000e+00 0.000000000000000e+00
 1.000000000000000e+00 0.000000000000000e+00 0.000000000000000e+00
 1.000000000000000e+00 0.000000000000000e+00 1.000000000000000e+00
 0.000000000000000e+00 1.000000000000000e+00 1.000000000000000e+00
 0.000000000000000e+00 1.000000000000000e+00 0.000000000000000e+00
 0.000000000000000e+00 0.000000000000000e+00 1.000000000000000e+00
 0.000000000000000e+00 0.000000000000000e+00 0.000000000000000e+00
 7.000000000000000e+00 1.000000000000000e+00 1.000000000000000e+00
 7.000000000000000e+00 1.000000000000000e+00 0.000000000000000e+00
 7.000000000000000e+00 0.000000000000000e+00 0.000000000000000e+00
 7.000000000000000e+00 0.000000000000000e+00 1.000000000000000e+00
 6.000000000000000e+00 1.000000000000000e+00 1.000000000000000e+00
 6.000000000000000e+00 1.000000000000000e+00 0.000000000000000e+00
 6.000000000000000e+00 0.000000000000000e+00 0.000000000000000e+00
 6.000000000000000e+00 0.000000000000000e+00 1.000000000000000e+00
 5.000000000000000e+00 1.000000000000000e+00 1.000000000000000e+00
 5.000000000000000e+00 1.000000000000000e+00 0.000000000000000e+00
 5.000000000000000e+00 0.000000000000000e+00 0.000000000000000e+00
 5.000000000000000e+00 0.000000000000000e+00 1.000000000000000e+00

  }

  Edges (96) {
 0 1
 0 2
 1 2
 0 3
 2 3
 4 5
 4 6
 5 6
 4 7
 6 7
 2 6
 1 6
 2 5
 0 4
 0 7
 3 4
 0 6
 8 9
 1 8
 1 9
 0 8
 7 10
 6 10
 7 11
 10 11
 1 10
 9 10
 7 8
 8 11
 8 10
 12 13
 9 12
 9 13
 8 12
 11 14
 10 14
 11 15
 14 15
 9 14
 13 14
 11 12
 12 15
 12 14
 16 17
 13 16
 13 17
 12 16
 18 19
 17 18
 17 19
 16 18
 15 19
 14 19
 15 18
 13 19
 15 16
 20 21
 20 22
 21 22
 20 23
 22 23
 24 25
 21 24
 21 25
 20 24
 23 26
 22 26
 23 27
 26 27
 21 26
 25 26
 23 24
 24 27
 24 26
 28 29
 25 28
 25 29
 24 28
 27 30
 26 30
 27 31
 30 31
 25 30
 29 30
 27 28
 28 31
 28 30
 3 29
 2 29
 3 28
 3 5
 5 31
 5 30
 4 31
 5 29
 3 31

  }

  Faces (72) {
 3 -1 1 -3
 3 3 -5 -2
 3 -6 6 -8
 3 8 -10 -7
 3 2 10 -12
 3 12 7 -11
 3 -9 -14 14
 3 -16 -4 13
 3 -1 16 -12
 3 14 -10 -17
 3 -18 -19 19
 3 -21 0 18
 3 9 21 -23
 3 23 -25 -22
 3 -20 25 -27
 3 11 22 -26
 3 -24 27 28
 3 -15 20 -28
 3 -18 29 -27
 3 28 -25 -30
 3 -31 -32 32
 3 -34 17 31
 3 24 34 -36
 3 36 -38 -35
 3 -33 38 -40
 3 26 35 -39
 3 -37 40 41
 3 -29 33 -41
 3 -31 42 -40
 3 41 -38 -43
 3 -44 -45 45
 3 -47 30 44
 3 -48 -49 49
 3 -51 43 48
 3 37 51 -53
 3 53 47 -52
 3 -46 54 -50
 3 39 52 -55
 3 -54 55 50
 3 -42 46 -56
 3 -57 57 -59
 3 59 -61 -58
 3 -62 -63 63
 3 -65 56 62
 3 60 65 -67
 3 67 -69 -66
 3 -64 69 -71
 3 58 66 -70
 3 -68 71 72
 3 -60 64 -72
 3 -62 73 -71
 3 72 -69 -74
 3 -75 -76 76
 3 -78 61 75
 3 68 78 -80
 3 80 -82 -79
 3 -77 82 -84
 3 70 79 -83
 3 -81 84 85
 3 -73 77 -85
 3 -75 86 -84
 3 85 -82 -87
 3 4 87 -89
 3 89 74 -88
 3 -91 -5 12
 3 -6 -16 90
 3 81 -92 92
 3 -94 5 91
 3 88 -95 -13
 3 83 -93 94
 3 93 -96 15
 3 -86 -90 95

  }

  Locations (72) {
eeeeeeeeii
eeeeeeeeii
eeeeeeeeii
eeeeeeeeee
eeeeeeeeee
iieeeeeeee
iieeiieeee
ee
  }

  Elements (7) {
 10 12 60 61 62 63 64 65 66 67
 68 69 70 71
 10 12 50 51 52 53 -61 -62 54 55
 56 57 58 59
 10 12 40 41 42 43 -51 -52 44 45
 46 47 48 49
 10 12 28 29 30 31 32 33 34 35
 36 37 38 39
 10 12 18 19 20 21 -29 -30 22 23
 24 25 26 27
 10 12 8 9 10 11 -19 -20 12 13
 14 15 16 17
 10 12 -65 -66 0 1 -9 -10 2 3
 4 5 6 7

  }

  Region ("region_5") {
    material = Silicon
    Elements (1) {
 0
    }
  }

  Region ("region_6") {
    material = Silicon
    Elements (1) {
 1
    }
  }

  Region ("region_7") {
    material = Silicon
    Elements (1) {
 2
    }
  }

  Region ("region_1") {
    material = Silicon
    Elements (1) {
 3
    }
  }

  Region ("region_2") {
    material = Silicon
    Elements (1) {
 4
    }
  }

  Region ("region_3") {
    material = Silicon
    Elements (1) {
 5
    }
  }

  Region ("region_4") {
    material = Silicon
    Elements (1) {
 6
    }
  }

}
