DF-ISE text

Info {
  version = 1.1
  type    = boundary
  dimension   = 2
  nb_vertices = 10
  nb_edges    = 12
  nb_faces    = 0
  nb_elements = 5
  nb_regions  = 5
  regions     = [ "region_A" "region_B" "region_C" "contact_1" "contact_2" ]
  materials   = [ SiO2 Silicon SiO2 Contact Contact ]
}

Data {

  CoordSystem {
    translate = [  0.000000000000000e+00 0.000000000000000e+00 0.000000000000000e+00 ]
    transform = [  1.000000000000000e+00 0.000000000000000e+00 0.000000000000000e+00
 0.000000000000000e+00 1.000000000000000e+00 0.000000000000000e+00
 0.000000000000000e+00 0.000000000000000e+00 1.000000000000000e+00
 ]
  }

  Vertices (10) {
 9.900000000000000e+00 9.990000000000001e+01
 8.230000000000000e+00 9.990000000000001e+01
 6.566000000000000e+00 -9.999999999999430e-02
 9.900000000000000e+00 -1.000000000000000e-01
 9.900000000000000e+00 9.900000000000000e+00
 3.230000000000000e+00 -9.999999999999430e-02
 1.566000000000000e+00 9.990000000000001e+01
 -1.000000000000000e-01 -9.999999999999970e-02
 -1.000000000000001e-01 9.990000000000001e+01
 -1.000000000000000e-01 9.900000000000006e+00

  }

  Edges (12) {
 0 1
 1 2
 2 3
 3 4
 4 0
 5 2
 1 6
 6 5
 7 5
 6 8
 8 9
 9 7

  }

  Locations (12) {
efeeeeefee
ee
  }

  Elements (5) {
 4 5 8 -8 9 10 11
 4 4 5 -2 6 7
 4 5 0 1 2 3 4
 1 9 7
 1 3 4

  }

  Region ("region_A") {
    material = SiO2
    Elements (1) {
 0
    }
  }

  Region ("region_B") {
    material = Silicon
    Elements (1) {
 1
    }
  }

  Region ("region_C") {
    material = SiO2
    Elements (1) {
 2
    }
  }

  Region ("contact_1") {
    material = Contact
    Elements (1) {
 3
    }
  }

  Region ("contact_2") {
    material = Contact
    Elements (1) {
 4
    }
  }

}
