DF-ISE text

# written by anetch
Info {
version     =  1
type        = boundary
dimension   =  3
nb_vertices = 188
nb_edges    = 661
nb_faces    = 485
nb_elements = 11
nb_regions  = 11
regions     = [ "Ox1" "Nitride_pattern0_lump_1" "Cu1" "Nitride_pattern0_lump_2" "Ta_Barrier" "Ta_Barrier2" "Ox2_lump_1" "Copper_pattern0" "Ox2_lump_2" "Nitride_pattern0" "Oxide_pattern0" ]
materials   = [ Oxide Nitride Copper Nitride Tantalum Tantalum Oxide Copper Oxide Nitride Oxide ]
}
Data {
CoordSystem {
translate = [  0  0  0 ]
transform = [  1  0  0  0  1  0  0  0  1 ]
 }
Vertices ( 188) {
-1 0.1000000000000227 0
-1 0.1000000000000227 -0.2999999999997272
-1 -0.09999999999990905 0
-1 -0.09999999999990905 -0.2999999999997272
0.1000000000000227 -0.09999999999990905 0
1 -0.09999999999990905 -0.2999999999997272
1 -0.09999999999990905 0.180000000000291
0.1000000000000227 -0.09999999999990905 0.180000000000291
0.1000000000000227 0.1000000000000227 0.180000000000291
1 0.1000000000000227 0.180000000000291
0.1000000000000227 0.1000000000000227 0
1 0.1000000000000227 -0.2999999999997272
-1 -0.09999999999990905 0.220000000000482
-0.1099999999999 0.1000000000000227 0.220000000000482
-1 0.1000000000000227 0.220000000000482
-0.1099999999999 -0.09999999999990905 0.220000000000482
-0.1099999999999 -0.09999999999990905 0.180000000000291
-1 0.1000000000000227 0.180000000000291
-1 -0.09999999999990905 0.180000000000291
-0.1099999999999 0.1000000000000227 0.180000000000291
0.04000000000007731 -0.09999999999990905 0.180000000000291
0.09000000000003183 -0.09999999999990905 0.08999999900004241
0.0909148540000615 -0.09999999999990905 0.16025191000017
0.08999991500013493 -0.09999999999990905 0.1350948500000868
0.09227108000004591 -0.09999999999990905 0.180000000000291
-1 -0.09999999999990905 0.01000000000001933
0.09000000000003183 -0.09999999999990905 0.01000000000001933
0.09097743300014827 0.1000000000000227 0.1608544200005326
0.09192781300021124 0.1000000000000227 0.180000000000291
0.04000000000007731 0.1000000000000227 0.180000000000291
0.0899999900000239 0.1000000000000227 0.09000605000017003
-1 0.1000000000000227 0.01000000000001933
0.090114647000064 0.1000000000000227 0.1354871400003503
0.09000000000003183 0.1000000000000227 0.01000000000001933
0.09149270700015677 0.08313191000013376 0.180000000000291
0.09080398400010381 0.07504566700004034 0.1602565900000172
0.09188774800009014 0.09304605700015145 0.180000000000291
0.09085102900019137 0.06983023500015406 0.1739853300002778
0.09220023500006391 -0.09344111699999758 0.180000000000291
0.09059879600022214 -0.0750234189999901 0.1595780900001955
0.09146478700017724 -0.05134493599990719 0.180000000000291
0.09161459700021624 0.06980617500016706 0.180000000000291
0.09161965900011637 0.05720105100010642 0.180000000000291
0.09013996500004851 0.04150562100016941 0.1631575000003522
0.08999987200002124 -0.05001168199999029 0.1350734000000102
0.09148896900001091 -0.04841007999999647 0.180000000000291
0.09000000000003183 -5.35971599999573e-10 0.08999999900004241
0.09000000100013494 0.005445567200013102 0.135023520000459
0.09008478500015826 0.005442230300005235 0.1519774500002313
0.09000000000003183 -0.05841995999992378 0.1162889800000357
0.09000000000003183 0.01683991700005549 0.0525779620000435
0.08999982300019838 0.05002450100005262 0.1350472100000388
0.09022705800009589 0.0004484277800003156 0.1686784000000898
0.0913227820000202 -0.03917678599992769 0.180000000000291
0.0918035750000854 0.001498668200005326 0.180000000000291
0.09200819300008334 0.01397631900002239 0.180000000000291
0.09182663200022034 0.0414899580000565 0.180000000000291
1 0.1000000000000227 0.220000000000482
0.04000000000007731 -0.09999999999990905 0.220000000000482
1 -0.09999999999990905 0.220000000000482
0.04000000000007731 0.1000000000000227 0.220000000000482
-0.1013342433391244 0.08509955354054455 0.4700000000011642
-0.1099999999999 0.09607843137291638 0.4700000000011642
-0.1040566228759872 0.06197196831561769 0.4700000000011642
-0.1017149420457599 0.09213166851372989 0.4700000000011642
-0.1017215160788965 0.1000000000000227 0.4700000000011642
-0.1082201237774143 0.1000000000000227 0.4700000000011642
-0.1061106755045103 0.04770727835193611 0.4700000000011642
-0.1096105837599453 0.1000000000000227 0.4700000000011642
-0.1099999999999 0.1000000000000227 0.4700000000011642
-0.1099999999999 -0.09999999999990905 0.4700000000011642
-0.1012790513348136 -0.04641517627925396 0.4700000000011642
-0.1012531901495777 -0.07119548129105624 0.4700000000011642
-0.1019783211485219 -0.09087017094498151 0.4700000000011642
-0.1020128026776774 -0.02309664453969162 0.4700000000011642
-0.1096078431371552 -0.09999999999990905 0.4700000000011642
-0.1092154678360657 -0.09999999999990905 0.4700000000011642
-0.1084202785808657 -0.09999999999990905 0.4700000000011642
-0.1018227388868809 -0.09999999999990905 0.4700000000011642
-0.1001804299999094 0.1000000000000227 0.4474150200007898
-0.1001570399998855 0.07781327600014265 0.4473439000003054
-0.1001554199999646 0.07089766200010672 0.4581335600000784
-0.1000830399999586 0.03555945500005464 0.4347225600004094
-0.1001756699997713 -0.04856468899998845 0.4603221400011535
0.5499996000016836 0.1000000000000227 0.2750000000000909
1 0.1000000000000227 0.2650000000003274
0.1000000000000227 0.1000000000000227 0.2650000000003274
0.09682794100001502 0.1000000000000227 0.2745021100008671
0.1327076200000192 0.1000000000000227 0.2749571100002868
0.3248402100007297 0.1000000000000227 0.2749768500002574
0.03091511200000241 0.1000000000000227 0.2245439100001931
0.06397637200007011 0.1000000000000227 0.2504827600000681
0.03011022100005789 0.1000000000000227 0.1899993300000915
-0.09999999999990905 0.1000000000000227 0.189999890000081
-0.09999999899980594 0.1000000000000227 0.2200015100004293
-0.1001014799998075 0.1000000000000227 0.3479056600003787
-0.09999999999990905 -0.09999999999990905 0.3475000000003092
-0.09999999999990905 -0.09999999999990905 0.220000000000482
-0.1001104699998905 -0.09999999999990905 0.4436985000002096
-0.09999999999990905 -0.09999999999990905 0.4112677500002064
0.03017782200006991 -0.09999999999990905 0.1899340300001313
-0.09999999999990905 -0.09999999999990905 0.1899997700004405
0.03099793400005524 -0.09999999999990905 0.2245200900001691
0.1000000000000227 -0.09999999999990905 0.2650000000003274
0.06396934300005341 -0.09999999999990905 0.2503792700008489
0.096827132000044 -0.09999999999990905 0.2744944000000942
1 -0.09999999999990905 0.2650000000003274
0.5500000000010914 -0.09999999999990905 0.2750000000000909
0.1275016600004619 -0.09999999999990905 0.2748971600003642
0.1560065300000133 -0.09999999999990905 0.2749384200001259
0.212338370000225 -0.09999999999990905 0.2749743400004263
0.3249989800001458 -0.09999999999990905 0.2750000000000909
1 0.1000000000000227 0.2750000000000909
0.1646793300003537 0.1000000000000227 0.274960380000266
0.2196569700004147 0.1000000000000227 0.2749660300000869
1 -0.09999999999990905 0.2750000000000909
0.0299393440000415 -0.0433218009999905 0.1936961700002939
-0.009477083099980632 -0.03605365599997867 0.1900061200001346
0.0301823510000645 -0.04591175399991698 0.2101156500000343
0.05380317700002024 0.03263116800007992 0.2426831300001595
0.06443410800011407 -1.561543799999399e-05 0.2508679700003995
0.03095469100000514 6.838683100002241e-06 0.2245633500003805
0.06401981900012288 0.0376778020000188 0.2505184900005588
0.03099833200002422 -0.04331976599996779 0.2245562200000677
0.07630450600004224 0.03744158400007791 0.2596444200003134
0.02999994400008177 -0.003838647699996756 0.2008677000001171
0.05046209600010343 -0.0433269879999898 0.2401264300003731
0.09328200300012668 0.0305841700000542 0.2667582700000821
0.0915779910000083 -0.004227848899994058 0.2628662200004328
0.1152770700002748 0.02906999100002849 0.2748245100001441
0.03005227600004901 -0.003726830299999762 0.1899747300003582
0.06397330000004331 -0.04999806699998999 0.2504310500003157
0.1192412300000569 -0.008510342199997467 0.2748515200000838
0.124536570000032 0.08054642700005843 0.2749409500002002
0.1276640100006716 -0.06875512199997047 0.2749344000003475
0.08011519700016834 -0.04968327799997496 0.2624945000002299
0.106105230000253 -0.06368885699998827 0.2747383200007789
0.2196573100000023 0.07167999300020256 0.2749693300006584
0.1642501500000435 0.08212800500007233 0.2749637800002347
0.1560022200001185 0.006246934600000031 0.274969050000891
0.1552385100003448 -0.009310248799977217 0.2749524700002439
0.2123385700001563 0.0125005400000191 0.2749793700004375
0.149774010000101 0.06108798400003934 0.2749651100002666
0.2226847000001726 0.05808935400006021 0.2749757300002784
0.1560048000001188 -0.03749915199983889 0.2749665400001504
0.2095977000001312 -0.0121961759999607 0.2749793700004375
0.2123379100000875 -0.02500036699993302 0.2749793700004375
-0.1001127099997348 0.0555391830000076 0.4187477200007379
0.2123391500006164 -0.07500086599986844 0.2749743400004263
-0.100109119999729 -0.06446685799983243 0.4343765500002519
0.3302833600005215 0.0487972270000796 0.2749785800006066
0.3195112600001266 -0.02439030899998329 0.2750000000000909
0.3249998300002517 0.02500381100003324 0.2750000000000909
0.3249991200000295 -0.05000012999994397 0.2750000000000909
-0.09999999999990905 4.576630400002224e-06 0.347503190000225
0.528823310000007 0.004706084300011071 0.2750000000000909
-0.09999999899980594 -0.02889402999997515 0.3928389000002426
0.5500000000010914 -0.04999999999989768 0.2750000000000909
-0.1274509803906767 -0.09999999999990905 0.4700000000011642
-0.9825490196089959 0.1000000000000227 0.4700000000011642
-1 -0.09607843137268901 0.4700000000011642
-1 -0.09999999999990905 0.4700000000011642
-1 0.1000000000000227 0.4700000000011642
-0.09063277097652644 0.1000000000000227 0.4700000000011642
-0.08845371816880743 0.1000000000000227 0.4700000000011642
-0.08653507973508567 0.1000000000000227 0.4700000000011642
-0.08323569991989643 0.1000000000000227 0.4700000000011642
-0.07692282323739619 0.1000000000000227 0.4700000000011642
0.6347053303543362 -0.09999999999990905 0.4700000000011642
0.7564703717662269 0.1000000000000227 0.4700000000011642
0.6346393091780556 0.1000000000000227 0.4700000000011642
-0.07721698677630684 -0.09999999999990905 0.4700000000011642
1 0.008235294117540093 0.4700000000011642
0.7564705882359704 -0.09999999999990905 0.4700000000011642
1 -0.09999999999990905 0.4700000000011642
-0.08391314211007739 -0.09999999999990905 0.4700000000011642
-0.08726240013641018 -0.09999999999990905 0.4700000000011642
-0.09080286895311929 -0.09999999999990905 0.4700000000011642
-0.08895826076206959 -0.09999999999990905 0.4700000000011642
1 0.1000000000000227 0.4700000000011642
-1 -0.09999999999990905 0.5100000000002183
1 -0.09999999999990905 0.5100000000002183
1 0.1000000000000227 0.5100000000002183
-1 0.1000000000000227 0.5100000000002183
-1 -0.1 0.8
1 -0.1 0.8
1 0.1 0.8
-1 0.1 0.8
 }
Edges ( 661) {
0 1
2 1
0 2
1 3
2 3
4 3
4 2
3 5
4 5
6 5
4 6
7 6
4 7
8 9
10 9
10 8
9 11
10 11
1 11
10 1
10 0
9 5
5 11
9 6
3 11
8 6
8 7
0 4
10 4
10 7
12 13
14 13
12 14
12 15
13 15
16 17
16 18
18 17
19 17
16 19
18 12
18 15
16 15
17 14
17 12
19 14
19 13
16 13
20 16
16 21
20 21
20 22
20 23
22 23
22 24
20 24
16 25
25 26
16 26
21 26
25 18
21 23
27 28
27 29
28 29
19 30
29 19
29 30
19 31
31 17
30 32
29 32
27 32
31 33
19 33
30 33
18 31
25 31
34 35
34 36
35 36
35 37
34 37
27 36
28 36
27 35
22 38
24 38
38 39
22 39
39 40
38 40
32 35
37 41
34 41
37 42
41 42
35 43
37 43
40 44
40 45
44 45
39 44
23 44
23 39
46 47
44 46
44 47
44 48
47 48
21 46
26 46
46 49
21 49
26 50
46 50
33 50
26 33
48 51
47 51
44 52
48 52
44 53
45 53
52 53
52 54
53 54
52 55
54 55
43 55
43 52
42 43
43 56
42 56
55 56
35 51
43 51
30 51
32 51
30 50
50 51
46 51
23 49
44 49
43 48
26 31
29 36
29 34
29 41
29 42
29 56
29 55
29 54
20 54
20 29
20 53
20 40
20 45
20 38
20 19
8 56
8 42
28 8
36 8
7 55
8 55
38 7
24 7
8 41
40 7
7 45
7 53
7 54
34 8
57 58
59 58
57 59
57 60
60 58
57 9
57 8
60 8
60 28
60 29
59 7
58 7
59 6
58 24
58 20
57 6
58 29
33 10
30 10
31 0
33 0
30 8
32 8
27 8
21 4
26 4
22 7
23 7
21 7
26 2
25 2
25 0
61 62
63 62
61 63
64 61
64 62
65 62
62 66
65 66
65 64
63 67
67 62
66 68
62 68
69 68
62 69
70 62
67 70
71 72
72 70
71 70
72 73
73 70
70 74
74 71
67 74
70 75
73 75
73 76
76 77
73 77
75 76
78 77
73 78
65 79
79 66
64 79
64 80
79 80
61 80
61 81
80 81
63 81
67 81
81 82
67 82
74 82
71 83
74 83
82 83
72 83
84 85
85 86
84 86
87 86
87 88
88 86
89 86
89 84
90 60
91 90
91 60
91 86
86 60
92 29
92 60
93 19
93 29
94 13
95 13
95 94
94 93
93 13
96 97
96 15
97 15
76 98
98 77
70 98
75 98
70 96
70 99
96 99
100 20
100 101
101 20
102 58
102 100
100 58
103 58
104 103
104 58
105 103
105 104
106 103
107 106
107 103
108 103
108 105
109 103
109 108
110 103
110 109
111 103
110 111
112 85
112 106
85 106
113 88
113 86
114 113
114 86
114 89
87 91
90 92
68 79
69 95
69 79
95 79
92 93
69 13
98 99
70 15
97 101
101 15
101 16
78 98
115 106
107 115
102 104
111 107
112 115
100 116
116 117
100 117
116 118
100 118
119 120
119 121
120 121
119 122
120 122
102 118
118 123
102 123
90 122
90 119
122 124
120 124
123 125
118 125
123 126
102 126
91 124
91 122
124 127
120 127
127 128
120 128
127 129
128 129
101 117
117 130
116 130
121 126
121 123
126 131
102 131
129 132
128 132
87 127
87 124
87 129
87 133
129 133
108 134
109 134
104 131
131 135
104 135
128 135
132 135
105 136
135 136
105 135
134 136
105 134
132 136
137 138
114 137
114 138
132 139
132 140
139 140
129 139
141 142
141 143
142 143
133 142
129 142
88 133
88 142
132 144
132 134
134 144
140 144
140 145
139 145
140 146
144 146
145 146
139 142
109 144
113 138
88 138
138 142
89 137
139 141
141 145
138 143
80 82
95 147
79 147
109 148
110 148
144 148
98 149
99 149
137 150
137 143
143 150
89 150
80 147
82 147
83 149
82 149
146 148
145 151
146 151
141 151
73 149
72 149
73 98
111 148
150 152
143 152
84 150
146 153
148 153
151 153
141 152
151 152
95 154
147 154
82 154
111 153
120 131
120 135
93 130
93 117
125 130
116 125
153 155
151 155
152 155
99 156
96 156
107 153
153 157
155 157
121 125
149 156
154 156
96 154
84 112
84 157
112 157
84 155
107 157
115 157
150 155
92 121
92 125
120 126
97 154
94 154
97 94
82 156
90 121
92 130
93 101
97 93
62 13
62 15
86 106
86 103
60 103
62 158
70 158
158 159
159 160
160 158
161 158
160 161
69 159
62 159
159 162
162 160
161 12
158 12
160 12
160 14
162 14
159 14
159 13
158 15
64 163
65 163
163 61
164 61
164 163
165 61
165 164
166 61
166 165
61 167
167 166
63 167
67 167
74 167
168 169
169 170
170 168
167 171
74 171
172 169
169 173
173 172
173 174
174 172
168 167
170 167
71 171
72 175
175 171
72 171
176 72
176 175
73 176
78 177
73 177
177 178
73 178
178 176
179 169
172 179
168 173
171 168
95 87
95 167
87 167
113 167
167 114
167 88
167 89
170 89
169 84
170 84
172 112
179 112
171 109
171 110
171 111
168 107
173 107
168 111
174 115
172 115
108 171
105 99
99 171
105 171
98 171
98 175
98 178
98 176
177 98
79 165
79 164
95 90
95 91
79 167
79 166
97 102
96 102
173 115
92 94
90 94
163 79
97 100
105 96
96 104
169 112
57 85
57 86
85 59
59 106
59 103
161 180
158 180
172 181
174 181
169 182
179 182
160 180
181 182   
182 183
181 183
173 181
168 181
171 181
171 180
180 181
175 180
176 180
178 180   
177 180
78 180
77 180
76 180
75 180
70 180
172 182
162 183
159 183
170 182    
167 182
167 183
166 183
165 183
164 183
163 183
65 183
66 183
68 183
69 183      
160 183
183 180
184 185
185 186
186 187
187 184
180 184
181 185
182 186
183 187   
 }
Faces ( 485) {
3 0 -2 -3 
3 3 -5 1 
3 4 -6 6 
3 7 -9 5 
3 -10 -11 8 
3 -12 -13 10 
3 13 -15 15 
3 16 -18 14 
3 -19 -20 17 
3 -1 -21 19 
3 -17 21 22 
3 23 9 -22 
3 -8 24 -23 
3 -4 18 -25 
3 -14 25 -24 
3 26 11 -26 
3 -7 -28 2 
3 -29 20 27 
3 -16 29 -27 
3 28 12 -30 
3 30 -32 -33 
3 33 -35 -31 
3 -36 36 37 
3 -39 -40 35 
3 -41 41 -34 
3 -37 42 -42 
3 -44 44 32 
3 -38 40 -45 
3 43 -46 38 
3 31 -47 45 
3 -48 42 -35 
3 -47 -40 47 
3 48 49 -51 
3 -52 52 -54 
3 54 -56 51 
3 56 57 -59 
3 -50 58 -60 
3 -61 -57 36 
3 50 61 -53 
3 -63 63 -65 
3 -66 -67 67 
3 68 69 -39 
3 -71 -68 71 
3 72 -72 -64 
3 -74 -69 74 
3 75 -75 65 
3 60 76 -78 
3 37 -70 -77 
3 -79 79 -81 
3 81 -83 78 
3 83 -85 -63 
3 85 80 -84 
3 -87 54 87 
3 88 -90 86 
3 -91 -89 91 
3 72 92 -86 
3 82 93 -95 
3 -94 95 -97 
3 97 -99 -82 
3 -100 100 -102 
3 -103 90 99 
3 102 -104 104 
3 -106 -107 107 
3 -108 108 -110 
3 -60 110 -112 
3 -113 -111 113 
3 -115 111 115 
3 -117 -118 114 
3 118 -120 109 
3 -109 120 -122 
3 -123 101 123 
3 -125 -121 122 
3 -126 124 126 
3 -128 125 128 
3 -130 130 127 
3 131 132 -134 
3 -96 98 -132 
3 -133 129 134 
3 -98 135 -137 
3 -71 137 -139 
3 139 140 -138 
3 -142 105 119 
3 -114 61 142 
3 -143 103 143 
3 -145 136 -119 
3 106 112 -144 
3 -54 89 -105 
3 -116 141 -141 
3 75 116 -140 
3 57 145 -78 
3 117 -74 -146 
3 144 121 -131 
3 138 -136 -93 
3 -65 84 -147 
3 -148 146 -80 
3 147 94 -149 
3 -150 148 96 
3 133 -151 149 
3 150 -135 -152 
3 -153 151 -129 
3 -154 154 152 
3 -127 -156 153 
3 -101 -157 157 
3 -92 -159 156 
3 158 -88 -56 
3 -158 155 -124 
3 159 -67 -155 
3 48 39 -160 
3 160 -134 -162 
3 -85 162 -164 
3 26 164 -166 
3 87 166 -168 
3 161 -97 -169 
3 -167 91 169 
3 -171 -170 100 
3 170 123 -172 
3 171 126 -173 
3 -165 172 128 
3 -161 165 134 
3 168 -95 173 
3 -174 79 163 
3 174 -176 -177 
3 177 178 -175 
3 179 -14 -181 
3 180 -182 -178 
3 -163 -183 181 
3 64 -184 182 
3 -185 175 185 
3 -187 184 11 
3 -186 187 167 
3 188 55 -188 
3 186 -190 176 
3 -24 -180 189 
3 190 -184 178 
3 188 154 -191 
3 -192 -76 192 
3 -194 73 194 
3 -195 191 20 
3 -193 195 -16 
3 70 196 -196 
3 -73 197 -197 
3 62 162 -198 
3 -199 59 199 
3 200 -168 -55 
3 -202 -62 202 
3 53 201 -201 
3 -203 198 12 
3 -200 203 -7 
3 -58 204 -204 
3 193 -206 77 
3 2 -205 205 
3 206 -208 -209 
3 209 206 -211 
3 211 212 -214 
3 214 210 -212 
3 -216 207 -217 
3 217 -219 212 
3 218 -220 -221 
3 -222 -223 216 
3 223 224 -226 
3 226 227 -225 
3 225 228 229 
3 222 228 -231 
3 227 231 -233 
3 233 234 -236 
3 232 236 -234 
3 -238 -239 235 
3 -214 239 240 
3 214 241 -240 
3 -242 242 -244 
3 209 244 -243 
3 -245 245 -247 
3 208 247 -246 
3 248 249 -251 
3 215 248 -248 
3 230 251 -251 
3 252 -254 229 
3 253 -255 -252 
3 223 255 -253 
3 256 257 -259 
3 -260 260 261 
3 -263 263 258 
3 -265 -266 266 
3 267 268 -267 
3 -270 270 183 
3 -272 272 66 
3 273 -275 275 
3 -274 276 277 
3 -279 279 -281 
3 281 282 -235 
3 -232 283 -285 
3 284 -282 -237 
3 -286 286 -288 
3 -289 289 290 
3 -292 292 293 
3 -295 -296 296 
3 -298 298 295 
3 -300 -301 301 
3 -303 303 297 
3 -305 305 302 
3 -307 307 304 
3 -309 -310 306 
3 -311 311 -313 
3 -262 -314 314 
3 -315 -316 316 
3 -317 317 262 
3 -319 259 -268 
3 -271 -320 264 
3 320 240 217 
3 -322 322 -324 
3 -278 271 46 
3 -273 -325 269 
3 322 -321 -220 
3 -326 321 274 
3 283 326 -287 
3 -328 285 279 
3 -329 280 -330 
3 -331 329 -43 
3 237 -283 -332 
3 -291 330 -49 
3 -294 288 -189 
3 300 -333 -334 
3 -297 -335 291 
3 -302 -336 308 
3 -312 336 332 
3 337 338 -340 
3 -341 -338 341 
3 -343 343 -345 
3 -346 342 346 
3 347 -342 -293 
3 -349 -348 349 
3 345 -351 351 
3 -353 -347 353 
3 348 354 -356 
3 -357 -350 357 
3 352 -359 359 
3 -361 -354 361 
3 -363 -362 363 
3 -365 362 365 
3 339 -367 -290 
3 -368 -339 368 
3 356 -370 370 
3 -372 -358 372 
3 -374 -366 374 
3 -376 376 360 
3 -378 375 364 
3 -379 377 379 
3 -381 -306 381 
3 382 -373 334 
3 -384 -383 384 
3 -375 385 -387 
3 387 -389 -390 
3 390 -388 391 
3 389 -385 -299 
3 386 388 -393 
3 -394 -395 395 
3 -397 397 -399 
3 373 396 -400 
3 -401 401 -403 
3 -404 -380 404 
3 405 403 -407 
3 -408 408 409 
3 -398 407 -411 
3 398 411 -413 
3 -414 410 414 
3 -412 413 -416 
3 -405 399 416 
3 -410 -382 417 
3 418 -396 315 
3 -420 406 -421 
3 394 -422 -318 
3 -419 313 419 
3 -423 412 -424 
3 -417 422 400 
3 420 402 -425 
3 246 249 -426 
3 -406 -261 378 
3 -427 323 427 
3 -429 -308 429 
3 -418 428 -431 
3 -432 326 432 
3 -434 434 435 
3 421 433 -437 
3 -435 393 424 
3 437 -428 243 
3 438 -438 425 
3 254 439 -441 
3 380 -392 -304 
3 -415 430 -442 
3 -443 415 443 
3 423 442 -445 
3 445 -447 226 
3 446 -440 -256 
3 331 -448 238 
3 447 431 -446 
3 -430 309 448 
3 -450 -436 450 
3 -264 436 -452 
3 -453 441 453 
3 -444 452 -455 
3 -456 444 456 
3 -402 455 -451 
3 -458 426 458 
3 -439 459 -459 
3 -454 -449 460 
3 461 383 -463 
3 367 -464 464 
3 465 -369 466 
3 454 467 -469 
3 -470 -457 468 
3 -471 -288 471 
3 -461 335 472 
3 473 -475 -468 
3 355 -467 340 
3 475 -355 -371 
3 470 -477 -433 
3 477 -472 478 
3 -480 480 -482 
3 -481 482 474 
3 -474 -473 483 
3 484 -484 333 
3 449 469 -486 
3 -360 265 350 
3 -476 -487 487 
3 344 369 -489 
3 489 -479 278 
3 490 -490 491 
3 492 -478 -460 
3 -483 451 485 
3 358 -377 318 
3 -344 -352 493 
3 -276 457 -491 
3 440 476 -493 
3 324 463 -495 
3 495 366 -465 
3 -277 -492 496 
3 -496 -497 328 
3 -337 481 -485 
3 392 -391 -409 
3 -364 462 -386 
3 488 371 -462 
3 319 486 -494 
3 494 -466 -488 
3 325 -498 220 
3 497 34 -499 
3 221 498 -328 
3 -500 -258 312 
3 299 -501 499 
3 -502 -269 500 
3 294 -179 501 
3 479 310 -257 
3 221 502 -504 
3 504 505 506 
3 507 -507 508 
3 509 -511 220 
3 502 504 -511 
3 -506 511 512 
3 -508 513 -515 
3 -509 515 -514 
3 -516 516 -33 
3 -513 517 -517 
3 -512 518 -518 
3 -519 519 -32 
3 -510 325 -520 
3 503 520 -328 
3 -521 514 33 
3 214 521 -523 
3 523 -525 525 
3 524 -527 527 
3 526 -529 529 
3 528 530 531 
3 521 523 -210 
3 208 532 -531 
3 -231 533 -535 
3 535 536 537 
3 534 538 -540 
3 533 -533 215 
3 540 541 542 
3 543 544 -543 
3 545 -547 537 
3 -230 539 -548 
3 548 549 -551 
3 551 548 -553 
3 553 551 226 
3 554 -556 238 
3 555 556 -558 
3 -554 557 558 
3 -224 547 -551 
3 559 -541 560 
3 -562 535 541 
3 562 545 538 
3 -564 564 -566 
3 566 567 315 
3 568 -314 566 
3 -568 569 -318 
3 -547 570 -570 
3 571 -573 -537 
3 572 -264 -571 
3 -561 573 -575 
3 575 -308 -577 
3 576 309 -578 
3 -562 578 -580 
3 -579 580 335 
3 581 -583 -545 
3 582 -337 -574 
3 583 575 305 
3 584 585 -587 
3 586 -584 303 
3 587 -550 -589 
3 -327 587 -586 
3 -590 590 -559 
3 331 -592 -555 
3 588 -553 -591 
3 592 527 -594 
3 265 -595 595 
3 565 568 -261 
3 596 531 -598 
3 278 598 -600 
3 -544 600 -582 
3 -601 579 333 
3 -602 324 -277 
3 602 -276 594 
3 318 -596 563 
3 522 603 -240 
3 323 596 -565 
3 319 601 -603 
3 603 593 525 
3 597 529 -593 
3 604 -293 -599 
3 328 -290 -605 
3 605 606 -299 
3 591 589 -557 
3 -288 -606 584 
3 599 334 -607 
3 -563 577 -581 
3 574 -608 -560 
3 607 -480 -572 
3 -609 609 -258 
3 177 -269 -610 
3 608 610 -177 
3 312 -612 -611 
3 294 -176 612 
3 299 -613 611 
3 -508 613 -615 
3 544 615 -617 
3 559 617 -619     
3 -509 619 -614 
3 620 621 -623 
3 -544 623 -617 
3 -562 624 -624 
3 -563 625 -625   
3 626 627 -626 
3 549 626 -629 
3 552 628 -630 
3 558 629 -631 
3 556 630 -632 
3 554 631 -633 
3 -238 632 -634 
3 234 633 -635 
3 236 634 -636 
3 231 635 -637    
3 560 618 -638 
3 511 638 -640 
3 536 640 -618 
3 546 641 -641 
3 642 -622 -642 
3 -532 642 -644 
3 -530 643 -645 
3 -528 644 -646 
3 -526 645 -647 
3 522 646 -648   
3 -214 647 -649 
3 -218 648 -650 
3 219 649 -651 
3 -513 638 -652 
3 622 652 627 
3 -504 636 -615 
3 637 -621 -616 
3 -510 650 -640 
3 651 652 -620 
4 653 654 655 656    
4 -628 657 653 -659 
4 -621 658 654 -660 
4 -622 659 655 -661 
4 -653 660 656 -658 
 }
Locations ( 485) {
eeeeeeeeeeeeeeffffffffffeeeeee
ffeeeeeeeeeeeeeeeeffffffffffff
ffffffffffffffffffffffffffffff
ffffffffffffffffffffffffffffff
fffeeeeeeeeeeffeeeeeeeeeeeeeee
effffffffffffffffefffffffffffe
eeeeeeeeeeeeeeeeeeeeeeeeeeeeee
eeeeeeeeeeeeeeefffffffffffffff
ffffffffffffffffffffffffffffff
ffffffffffffffffffffffffffffff
ffffffffffffffffffffffffffffff
ffffffffffffffffffffeffffffeee
eeeeeeffffffffffffffffffffffff
feeeeeeeeeeeeeeeeeeeeeeeeeeeee
eeeeeeeeeeeeeeeeeeeeeeeeeeefee
eeeeeeeeeeeeeeeeeeeeeeeeefeeee
eeeee }
Elements ( 11) {
 10 20 0 1 2 3 4 5 6 7 8 9 10 11 12 13 14 15 16 17 18 19
 10 12 20 21 22 23 24 25 26 27 28 29 -31 -32
 10 78 32 33 34 35 36 37 38 39 40 41 42 43 44 45 46 47 -49 -50 -51 -52 -53 -54 -55 -56 -57 -58 -59 -60 -61 -62 -63 -64 -65 -66 -67 -68 -69 -70 -71 -72 -73 -74 -75 -76 -77 -78 -79 -80 -81 -82 -83 -84 -85 -86 -87 -88 -89 -90 -91 -92 -93 -94 -95 -96 -97 -98 -99 -100 -101 -102 -103 -104 -105 -106 -23 -24 -107 -108
 10 42 108 109 110 111 112 113 114 115 116 117 118 119 120 93 94 95 96 97 98 99 100 101 102 103 104 105 121 122 123 124 125 126 127 128 129 130 131 132 -134 -135 -15 -16
 10 78 48 49 50 51 135 136 137 138 139 140 141 52 53 54 142 143 144 145 146 147 148 149 150 55 56 57 58 59 60 61 62 63 64 65 66 67 68 69 70 71 72 73 74 75 76 77 78 79 80 81 82 83 84 85 86 87 88 89 90 91 92 -109 -110 -111 -112 -113 -114 -115 -116 -117 -118 -119 -120 -121 -17 -18 -19 -20
 10 206 151 -153 -154 -155 155 156 157 158 -160 -161 -162 162 163 164 165 166 167 168 169 170 171 172 -174 174 175 176 177 178 179 180 181 182 183 184 185 186 187 188 189 190 191 -193 193 194 195 196 197 198 199 200 201 202 203 204 205 206 207 -209 209 210 211 -213 213 -215 -216 216 217 218 219 220 221 222 223 224 225 226 227 228 229 230 231 232 233 234 235 236 237 238 239 240 241 242 243 244 245 246 247 248 249 250 251 252 253 254 255 256 257 258 259 260 261 262 263 264 265 266 267 268 269 270 271 272 273 274 275 276 277 278 279 280 281 282 283 284 285 286 287 288 289 290 291 292 293 294 295 296 297 298 299 300 301 302 303 304 305 306 307 308 309 310 311 312 313 314 315 316 317 318 319 320 321 322 323 324 325 326 327 328 329 330 331 332 333 334 335 336 337 338 339 340 341 342 343 344 345 106 107 30 31 346 347 348 349 133 134 350
 10 20 351 352 353 354 -356 356 357 358 359 360 361 362 363 364 365 -21 -22 -344 -345 -346
 10 200 366 367 368 369 370 -372 372 -374 374 -376 376 377 378 -380 -381 381 -383 383 384 385 386 -388 388 -390 390 391 392 -394 394 395 396 397 398 399 400 401 402 403 404 -406 -407 -408 408 -410 410 411 412 -414 414 415 -417 417 418 419 420 421 422 423 424 425 -427 -428 428 429 430 431 432 433 434 435 436 -169 -170 -171 -172 -173 173 -175 -176 -177 -178 -179 -226 -227 -228 -229 -230 -231 -232 -233 -234 -235 -236 -237 -238 -239 -240 -241 -242 -243 -244 -245 -246 -247 -248 -249 -250 -251 -252 -253 -254 -255 -256 -257 -258 -259 -260 -261 -262 -263 -264 -265 -266 -267 -268 -269 -270 -271 -272 -273 -274 -275 -276 -277 -278 -279 -280 -281 -282 -283 -284 -285 -286 -287 -288 -289 -290 -291 -292 -293 -294 -295 -296 -297 -298 -299 -300 -301 -302 -303 -304 -305 -306 -307 -308 -309 -310 -311 -312 -313 -314 -315 -316 -317 -318 -319 -320 -321 -322 -323 -324 -325 -326 -327 -328 -329 -330 -331 -332 -333 -334 -335 -336 -337 -338 -339 -340 -341 -342 -343
 10 12 437 438 439 440 441 442 -122 -123 -347 -348 -349 -350
 10 84 -367 -368 -369 -370 -371 371 -373 373 -375 375 -377 -378 -379 379 380 -382 382 -384 -385 -386 -387 387 -389 389 -391 -352 -353 -354 -355 355 -357 -152 152 153 154 -156 -157 -158 -159 159 160 161 -163 -164 -165 -166 -167 -444 444 445 -447 447 -449 -450 -451 -452 452 453 454 455 456 457 458 459 460 461 462 463 464 465 -467 -468 -469 -470 -471 -472 -473 -474 -475 475 476 477 -479 -480
 10 7 480 -448 -476 -482 -483 -484 -485
 }
Region ("Ox1") {
material =Oxide
Elements ( 1) {
 0}
}
Region ("Nitride_pattern0_lump_1") {
material =Nitride
Elements ( 1) {
 1}
}
Region ("Cu1") {
material =Copper
Elements ( 1) {
 2}
}
Region ("Nitride_pattern0_lump_2") {
material =Nitride
Elements ( 1) {
 3}
}
Region ("Ta_Barrier") {
material =Tantalum
Elements ( 1) {
 4}
}
Region ("Ta_Barrier2") {
material =Tantalum
Elements ( 1) {
 5}
}
Region ("Ox2_lump_1") {
material =Oxide
Elements ( 1) {
 6}
}
Region ("Copper_pattern0") {
material =Copper
Elements ( 1) {
 7}
}
Region ("Ox2_lump_2") {
material =Oxide
Elements ( 1) {
 8}
}
Region ("Nitride_pattern0") {
material =Nitride
Elements ( 1) {
 9}
}
Region ("Oxide_pattern0") {
material =Oxide
Elements ( 1) {
 10}
}
}
