<?xml version="1.0"?>
<VTKFile type="UnstructuredGrid" version="0.1" byte_order="LittleEndian">
 <UnstructuredGrid>
  <Piece NumberOfPoints="101" NumberOfCells="277">
   <Points>
    <DataArray type="Float32" NumberOfComponents="3" format="ascii">
0.04199 -0.221732 0
0.0597443 -0.209774 0
0.0359799 -0.221992 0
-0.15 -0.143089 -0.02
0.15 -0.132 -0.02
0.15 -0.168 -0.02
0.15 -0.35 0
0.15 -0.35 -0.02
0.006 -0.35 0
-0.15 -0.35 -0.02
0.006 -0.35 -0.02
-0.15 -0.35 0
-0.15 0.15 0
-0.006 0.15 -0.02
-0.15 0.15 -0.02
-0.15 0 0
-0.15 0 -0.02
0.15 -0.108 0
0.15 -0.084 -0.02
0.15 -0.084 0
0.15 0.15 0
0.15 0.15 -0.02
-0.006 0.15 0
0.063238 -0.205397 0
0.071768 -0.194708 0
-0.0943698 -0.072 0
0.0944782 -0.084 0
0.0941002 -0.06 0
0.0922308 -0.132 0
0.0839822 -0.149089 0
0.15 -0.168 0
0.0745691 -0.190354 0
0.0837936 -0.168 0
0.0829652 0 0
0.0839396 -0.0233389 0
0.15 -0.0266695 0
0.0918811 -0.042 0
0.15 -0.06 0
0.0844931 -0.0266695 0
0.018 0.0538519 0
-0.006 0.0539169 0
0.071885 0.0171199 0
0.0599181 0.0299142 0
0.0476071 0.0418939 0
0.036 0.0531409 0
0.09433 -0.108 0
-0.03 0.0534761 0
-0.047607 0.0418939 0
-0.059918 0.0299142 0
-0.0709023 0.0181705 0
-0.0845233 -0.0293389 0
-0.085692 -0.146544 0
0.024 -0.233545 0
-0.042 -0.221728 0
-0.0389799 -0.221864 0
-0.018 -0.233679 0
0.006 -0.233829 0
-0.0731105 -0.193354 0
-0.0746851 -0.188708 0
-0.15 -0.168 0
-0.0597442 -0.209774 0
-0.0837935 -0.168 0
-0.0874197 -0.143089 0
-0.0842012 -0.0236695 0
-0.15 -0.048 0
-0.0928942 -0.048 0
-0.15 -0.072 0
-0.0944567 -0.096 0
-0.0939392 -0.12 0
-0.0829652 0 0
-0.071885 0.0171199 0
0.15 -0.132 0
-0.15 -0.143089 0
0.15 -0.108 -0.02
0.15 -0.0266695 -0.02
-0.15 -0.048 -0.02
-0.15 -0.096 -0.02
-0.15 -0.12 -0.02
-0.15 -0.168 -0.02
0.15 -0.06 -0.02
-0.15 -0.096 0
-0.15 -0.12 0
-0.15 -0.072 -0.02
-0.0681684 -0.125746 -0.00762637
0.102782 -0.200186 -0.0111814
-0.10547 -0.191603 -0.0114829
-0.0634876 0.0856965 -0.0151922
-0.0990937 -0.143635 -0.00614945
0.126328 -0.129721 -0.00640273
-0.103757 0.0211913 -0.0121701
0.0643501 -0.242807 -0.0160396
0.111786 -0.0220438 -0.00873973
0.0732313 0.0608972 -0.0140655
0.0222018 -0.0664513 -0.00681678
-0.106509 -0.0394669 -0.006704
-0.0594685 -0.225947 -0.012344
-0.115346 0.0673945 -0.0129834
0.103679 -0.05552 -0.00725684
0.0142302 -0.107616 -0.00854075
0.0104544 -0.0483232 -0.0148595
-0.110788 -0.0827381 -0.00716067

    </DataArray>
   </Points> 
   <PointData Scalars="scalars">
    <DataArray type="Float32" Name="result" format="ascii">
0 0 0 0 0 0 0 0 0 0 0 0 0 0 0 0 0 0 0 0 0 0 0 0 0 0 0 0 0 0 0 0 0 0 0 0 0 0 0 0 0 0 0 0 0 0 0 0 0 0 0 0 0 0 0 0 0 0 0 0 0 0 0 0 0 0 0 0 0 0 0 0 0 0 0 0 0 0 0 0 0 0 0 0 0 0 0 0 0 0 0 0 0 0 0 0 0 0 0 0 0 
    </DataArray>
   </PointData>
   <Cells> 
    <DataArray type="Int32" Name="connectivity" format="ascii">
60 54 95 53 
87 78 3 59 
90 78 95 10 
4 29 73 88 
91 93 79 99 
33 35 41 91 
3 2 4 5 
29 88 45 98 
100 93 94 82 
45 88 29 28 
5 29 4 88 
64 65 63 94 
83 80 67 81 
2 90 84 5 
88 28 30 29 
88 30 4 5 
90 5 6 84 
40 99 91 79 
93 94 25 100 
25 94 93 50 
25 93 98 26 
100 76 80 83 
25 98 93 100 
35 38 91 34 
22 13 12 86 
34 92 91 41 
87 81 83 68 
11 95 78 9 
67 98 100 83 
94 93 50 99 
89 94 40 16 
15 94 89 16 
92 13 74 21 
87 3 72 59 
90 78 10 5 
100 76 83 98 
90 10 7 5 
57 58 59 85 
29 30 84 32 
58 54 51 95 
100 98 67 25 
77 2 4 3 
95 2 51 87 
32 84 31 30 
67 98 26 25 
78 2 95 87 
2 83 98 29 
82 66 94 100 
95 10 78 9 
93 25 50 27 
93 76 100 98 
36 35 38 91 
9 11 95 8 
1 90 0 6 
97 37 27 36 
93 79 82 18 
50 93 27 38 
2 83 87 77 
5 29 88 84 
77 72 87 3 
57 95 58 85 
99 40 34 63 
91 93 97 79 
40 99 94 63 
40 89 63 94 
21 22 92 13 
32 84 29 31 
84 31 30 24 
89 96 48 49 
84 88 30 29 
2 98 83 77 
84 29 31 24 
38 99 91 34 
93 25 27 26 
5 29 84 2 
89 40 86 16 
92 22 86 13 
97 27 38 36 
89 86 40 48 
84 2 29 24 
83 68 81 67 
34 92 41 42 
90 78 5 2 
70 89 15 69 
77 98 83 76 
34 40 99 91 
93 76 98 18 
93 76 18 82 
10 6 8 90 
21 92 22 20 
2 98 73 29 
92 86 22 40 
6 5 30 84 
95 53 54 55 
71 88 30 4 
97 38 27 93 
38 50 99 34 
96 14 12 15 
21 35 74 92 
16 14 96 15 
77 98 76 73 
93 76 82 100 
97 38 91 36 
56 95 8 90 
97 91 38 93 
48 86 40 47 
100 80 82 66 
91 37 79 97 
95 10 9 8 
21 35 92 20 
88 45 26 17 
86 16 40 92 
48 86 47 12 
86 14 12 96 
12 48 86 96 
86 14 96 16 
87 81 68 72 
15 49 89 70 
86 14 16 13 
8 95 56 55 
73 88 71 4 
95 56 55 54 
89 86 96 16 
86 16 92 13 
34 92 42 40 
35 36 37 91 
92 16 74 13 
6 5 90 7 
89 96 49 15 
93 99 38 50 
67 98 83 45 
92 74 16 40 
88 26 45 98 
83 98 29 45 
90 23 84 6 
88 26 19 17 
79 37 91 74 
90 23 6 1 
63 89 40 48 
93 88 97 18 
88 19 18 17 
65 50 63 94 
3 2 5 78 
51 59 85 87 
63 99 50 34 
87 78 59 85 
89 96 86 48 
95 58 54 60 
93 88 18 98 
63 99 94 50 
91 92 40 74 
42 92 20 43 
95 56 54 2 
95 56 2 90 
87 78 85 95 
88 18 73 17 
2 73 98 77 
78 2 87 3 
16 94 40 75 
85 59 61 58 
86 14 13 12 
83 68 67 51 
85 61 51 58 
95 2 54 51 
95 10 8 90 
2 73 4 29 
88 73 98 29 
90 78 2 95 
85 59 51 61 
85 51 95 58 
64 25 94 66 
2 4 73 77 
94 66 82 75 
87 2 77 3 
40 79 91 74 
97 79 18 19 
33 34 91 41 
40 75 74 16 
51 83 45 67 
97 18 79 93 
2 83 29 51 
76 80 83 81 
1 90 2 0 
87 81 72 77 
77 76 83 81 
67 98 45 26 
87 81 77 83 
85 95 51 87 
29 83 45 51 
90 23 1 2 
2 24 84 23 
84 24 30 23 
90 23 2 84 
6 84 30 23 
95 11 53 8 
64 66 94 75 
53 95 8 55 
2 83 51 87 
87 68 83 51 
22 86 12 46 
47 12 86 46 
86 47 46 40 
22 40 86 46 
87 62 72 68 
62 87 72 59 
51 87 68 62 
51 59 87 62 
88 28 45 71 
88 97 19 26 
71 28 30 88 
94 25 100 66 
15 94 16 64 
89 49 48 63 
88 73 18 98 
89 69 70 63 
93 88 26 97 
49 89 70 63 
15 94 64 63 
89 69 63 15 
6 90 0 52 
2 90 52 0 
90 6 8 52 
90 2 52 56 
90 56 52 8 
82 93 99 79 
60 95 11 53 
35 91 37 74 
36 97 37 91 
92 35 74 91 
92 44 22 20 
94 25 65 50 
92 43 44 20 
88 45 17 71 
82 99 93 94 
88 97 18 19 
82 99 40 79 
93 88 98 26 
98 18 76 73 
91 93 99 38 
88 17 73 71 
91 35 34 33 
94 25 64 65 
40 79 74 75 
11 85 78 95 
11 85 95 57 
16 94 75 64 
15 94 63 89 
97 79 19 37 
5 29 2 4 
84 88 5 30 
97 19 26 37 
11 85 57 59 
11 85 59 78 
82 40 99 94 
57 95 60 58 
97 26 27 37 
95 57 60 11 
97 27 26 93 
82 40 75 79 
7 90 6 10 
82 75 40 94 
22 40 39 92 
42 40 92 39 
92 42 39 43 
44 92 22 39 
44 92 39 43 
49 96 12 15 
89 96 15 16 
96 49 12 48 
100 80 66 67 
34 92 40 91 
92 35 91 41 
92 35 41 20 
92 20 41 42 
67 100 25 66 
100 76 82 80 
100 80 67 83 

    </DataArray>
    <DataArray type="Int32" Name="offsets" format="ascii">
4 8 12 16 20 24 28 32 36 40 44 48 52 56 60 64 68 72 76 80 84 88 92 96 100 104 108 112 116 120 124 128 132 136 140 144 148 152 156 160 164 168 172 176 180 184 188 192 196 200 204 208 212 216 220 224 228 232 236 240 244 248 252 256 260 264 268 272 276 280 284 288 292 296 300 304 308 312 316 320 324 328 332 336 340 344 348 352 356 360 364 368 372 376 380 384 388 392 396 400 404 408 412 416 420 424 428 432 436 440 444 448 452 456 460 464 468 472 476 480 484 488 492 496 500 504 508 512 516 520 524 528 532 536 540 544 548 552 556 560 564 568 572 576 580 584 588 592 596 600 604 608 612 616 620 624 628 632 636 640 644 648 652 656 660 664 668 672 676 680 684 688 692 696 700 704 708 712 716 720 724 728 732 736 740 744 748 752 756 760 764 768 772 776 780 784 788 792 796 800 804 808 812 816 820 824 828 832 836 840 844 848 852 856 860 864 868 872 876 880 884 888 892 896 900 904 908 912 916 920 924 928 932 936 940 944 948 952 956 960 964 968 972 976 980 984 988 992 996 1000 1004 1008 1012 1016 1020 1024 1028 1032 1036 1040 1044 1048 1052 1056 1060 1064 1068 1072 1076 1080 1084 1088 1092 1096 1100 1104 1108 
    </DataArray>
    <DataArray type="UInt8" Name="types" format="ascii">
10 10 10 10 10 10 10 10 10 10 10 10 10 10 10 10 10 10 10 10 10 10 10 10 10 10 10 10 10 10 10 10 10 10 10 10 10 10 10 10 10 10 10 10 10 10 10 10 10 10 10 10 10 10 10 10 10 10 10 10 10 10 10 10 10 10 10 10 10 10 10 10 10 10 10 10 10 10 10 10 10 10 10 10 10 10 10 10 10 10 10 10 10 10 10 10 10 10 10 10 10 10 10 10 10 10 10 10 10 10 10 10 10 10 10 10 10 10 10 10 10 10 10 10 10 10 10 10 10 10 10 10 10 10 10 10 10 10 10 10 10 10 10 10 10 10 10 10 10 10 10 10 10 10 10 10 10 10 10 10 10 10 10 10 10 10 10 10 10 10 10 10 10 10 10 10 10 10 10 10 10 10 10 10 10 10 10 10 10 10 10 10 10 10 10 10 10 10 10 10 10 10 10 10 10 10 10 10 10 10 10 10 10 10 10 10 10 10 10 10 10 10 10 10 10 10 10 10 10 10 10 10 10 10 10 10 10 10 10 10 10 10 10 10 10 10 10 10 10 10 10 10 10 10 10 10 10 10 10 10 10 10 10 10 10 10 10 10 10 10 10 10 10 10 10 10 10 
    </DataArray>
   </Cells>
  </Piece>
 </UnstructuredGrid>
</VTKFile>
