<?xml version="1.0"?>
<VTKFile type="UnstructuredGrid" version="0.1" byte_order="LittleEndian">
 <UnstructuredGrid>
  <Piece NumberOfPoints="76" NumberOfCells="159">
   <Points>
    <DataArray type="Float32" NumberOfComponents="3" format="ascii">
-1 -0.1 0
-1 0.1 0
-1 0.1 -0.3
-1 -0.1 -0.3
-0.05 -0.1 0
0.1 -0.1 0
0.1 -0.1 -0.3
0.369999 -0.1 0.18
1 -0.1 -0.3
0.58 -0.1 0.18
0.264755 -0.1 0.18
0.1 -0.1 0.02
0.574742 0.1 0.18
1 0.1 -0.3
0.1 0.1 -0.3
0.764315 0.1 0.18
1 0.1 0.18
-0.05 0.1 -0.3
0.08 0.1 0
-0.05 0.1 0
1 -0.1 0.18
0.767229 -0.1 0.18
0.103098 -0.1 0.18
0.1 -0.0819976 0.18
0.1 -0.1 0.18
0.1 0.0168399 0
0.1 0.1 0
0.1 -0.1 0.175424
0.1 0.1 0.02
-0.05 -0.1 -0.3
0.08 -0.1 0
0.1 -0.1 0.159029
0.1 -0.0627907 0.18
0.113742 -0.1 0.18
0.1 -0.1 0.13504
0.1 -0.0584201 0.116289
0.1 -0.1 0.09
0.1 5.55909e-08 0.0900019
0.1 0.1 0.0900128
0.211886 -0.1 0.18
0.1 -0.0434537 0.18
0.1 -0.0297818 0.18
0.185019 -0.1 0.18
0.1 -0.0228077 0.18
0.154614 -0.1 0.18
0.145138 -0.1 0.18
0.214701 0.1 0.18
0.1 0.1 0.174222
0.1 0.1 0.18
0.104974 0.1 0.18
0.114117 0.1 0.18
0.265 0.1 0.18
0.1 0.1 0.159304
0.133666 0.1 0.18
0.1 0.1 0.135453
0.16 0.1 0.18
0.37 0.1 0.18
0.1 0.0863169 0.18
0.1 0.0446623 0.18
0.1 0.0244132 0.18
0.1 0.00800971 0.18
0.1 0.0205957 0.18
0.1 0.0500041 0.135062
0.1 -0.0146115 0.18
0.1 0.0670433 0.18
0.121361 0.0691137 0.148425
0.170405 -0.0106516 0.102753
0.124121 0.00145929 -0.101745
-0.490938 -5.26531e-08 -0.149907
0.813129 5.92491e-05 0.0329081
0.134302 0.0405666 0.129159
0.141847 -0.0430368 0.124427
0.447347 -0.000374175 -0.0336854
-0.00322261 0.00114632 -0.134738
0.125833 -0.0658081 0.144426
0.176228 0.000727692 0.0452757

    </DataArray>
   </Points> 
   <PointData Scalars="scalars">
    <DataArray type="Float32" Name="result" format="ascii">
0 0 0 0 0 0 0 0 0 0 0 0 0 0 0 0 0 0 0 0 0 0 0 0 0 0 0 0 0 0 0 0 0 0 0 0 0 0 0 0 0 0 0 0 0 0 0 0 0 0 0 0 0 0 0 0 0 0 0 0 0 0 0 0 0 0 0 0 0 0 0 0 0 0 0 0 
    </DataArray>
   </PointData>
   <Cells> 
    <DataArray type="Int32" Name="connectivity" format="ascii">
65 52 53 64 
22 33 23 27 
66 46 51 10 
60 63 66 37 
60 46 61 70 
14 73 18 67 
33 23 31 45 
1 68 2 0 
73 4 19 25 
66 28 75 51 
52 57 50 64 
68 17 2 3 
41 35 71 43 
35 63 71 43 
66 75 28 37 
22 27 23 24 
37 71 63 66 
75 56 26 67 
8 21 69 20 
26 51 75 28 
57 49 47 50 
66 51 75 10 
57 49 48 47 
58 70 55 65 
18 26 14 67 
38 55 46 70 
72 7 6 67 
8 16 69 13 
13 6 14 72 
73 6 30 67 
55 65 53 58 
55 54 53 65 
35 74 36 34 
37 71 66 36 
68 2 0 3 
75 56 67 7 
72 67 6 14 
7 72 6 9 
37 71 36 35 
67 30 73 25 
16 13 15 69 
67 30 5 6 
53 52 50 64 
54 52 53 65 
58 70 65 62 
75 7 67 5 
38 55 65 54 
46 38 70 66 
72 9 69 8 
73 30 4 25 
12 69 72 9 
28 51 66 46 
38 66 28 37 
53 65 64 58 
27 33 23 31 
4 3 29 68 
32 35 74 40 
26 75 25 28 
38 46 28 66 
2 68 19 17 
72 6 9 8 
1 68 19 2 
75 7 5 10 
66 11 75 37 
37 75 28 25 
69 9 15 21 
66 75 11 10 
73 6 67 14 
23 32 31 45 
52 57 47 50 
11 37 66 36 
5 11 75 10 
73 6 14 29 
46 55 61 70 
40 71 35 74 
73 19 4 68 
34 35 74 31 
35 32 74 31 
12 69 9 15 
75 67 26 25 
40 71 74 44 
17 73 29 68 
66 38 70 37 
74 32 45 31 
60 46 70 66 
34 74 45 31 
32 74 45 40 
74 35 36 71 
69 9 21 8 
7 6 67 5 
62 52 65 64 
7 12 72 9 
72 56 67 14 
54 52 65 62 
65 62 64 58 
60 63 42 66 
37 71 35 63 
66 36 42 39 
60 66 42 39 
73 19 18 25 
13 72 14 12 
67 5 30 25 
18 26 67 25 
72 56 14 12 
73 17 19 68 
1 4 68 0 
5 11 25 75 
4 68 0 3 
75 67 25 5 
1 4 19 68 
21 16 69 20 
16 69 15 21 
16 8 69 20 
60 70 61 62 
38 55 70 65 
58 70 59 55 
70 38 62 37 
60 70 62 37 
73 18 67 25 
68 3 29 17 
19 17 73 18 
75 11 25 37 
37 60 70 66 
41 71 42 43 
71 63 42 43 
66 36 71 42 
41 44 42 71 
44 71 36 42 
71 63 66 42 
75 7 10 51 
72 56 12 7 
72 56 7 67 
75 56 7 51 
26 67 56 14 
44 74 36 71 
13 72 69 8 
12 69 15 13 
13 6 72 8 
12 69 13 72 
14 73 29 17 
75 56 51 26 
4 29 73 68 
73 6 29 30 
29 30 4 73 
14 73 17 18 
74 44 36 34 
10 46 39 66 
74 44 45 40 
11 10 39 66 
11 66 39 36 
40 71 44 41 
60 46 66 39 
58 70 62 59 
59 70 62 61 
38 65 62 54 
40 71 41 35 
44 74 45 34 
38 65 70 62 
59 70 61 55 

    </DataArray>
    <DataArray type="Int32" Name="offsets" format="ascii">
4 8 12 16 20 24 28 32 36 40 44 48 52 56 60 64 68 72 76 80 84 88 92 96 100 104 108 112 116 120 124 128 132 136 140 144 148 152 156 160 164 168 172 176 180 184 188 192 196 200 204 208 212 216 220 224 228 232 236 240 244 248 252 256 260 264 268 272 276 280 284 288 292 296 300 304 308 312 316 320 324 328 332 336 340 344 348 352 356 360 364 368 372 376 380 384 388 392 396 400 404 408 412 416 420 424 428 432 436 440 444 448 452 456 460 464 468 472 476 480 484 488 492 496 500 504 508 512 516 520 524 528 532 536 540 544 548 552 556 560 564 568 572 576 580 584 588 592 596 600 604 608 612 616 620 624 628 632 636 
    </DataArray>
    <DataArray type="UInt8" Name="types" format="ascii">
10 10 10 10 10 10 10 10 10 10 10 10 10 10 10 10 10 10 10 10 10 10 10 10 10 10 10 10 10 10 10 10 10 10 10 10 10 10 10 10 10 10 10 10 10 10 10 10 10 10 10 10 10 10 10 10 10 10 10 10 10 10 10 10 10 10 10 10 10 10 10 10 10 10 10 10 10 10 10 10 10 10 10 10 10 10 10 10 10 10 10 10 10 10 10 10 10 10 10 10 10 10 10 10 10 10 10 10 10 10 10 10 10 10 10 10 10 10 10 10 10 10 10 10 10 10 10 10 10 10 10 10 10 10 10 10 10 10 10 10 10 10 10 10 10 10 10 10 10 10 10 10 10 10 10 10 10 10 10 
    </DataArray>
   </Cells>
  </Piece>
 </UnstructuredGrid>
</VTKFile>
