DF-ISE text

# filename: after_line_tri.bnd
# written by the library Delaunay
Info {
version     =  1.1
type        = boundary
dimension   =  3
nb_vertices =  96
nb_edges    =  324
nb_faces    =  231
nb_elements =  2
nb_regions  =  2
regions     = [ "Oxide" "Metal_pattern0" ]
materials     = [ Oxide Metal ]
 }
Data {
CoordSystem {
translate = [  0  0  0 ]
transform = [  1  0  0  0  1  0  0  0  1 ]
 }
Vertices (  96) {
 0.05974425000005112 -0.2097744999998667 0
 0.03597990000002937 -0.2219924999999421 0
 0.0419899500000156 -0.2217317499998899 0
 -0.1499999999998636 -0.3499999999999091 -0.01999999999998181
 0.1500000000000909 0.1500000000000909 -0.01999999999998181
 0.1500000000000909 -0.3499999999999091 -0.01999999999998181
 0.1500000000000909 -0.3499999999999091 0
 -0.1499999999998636 -0.3499999999999091 0
 -0.1499999999998636 0.1500000000000909 -0.01999999999998181
 -0.1499999999998636 0.1500000000000909 0
 0.1500000000000909 0.1500000000000909 0
 0.06323803236080039 -0.2053967206011293 0
 0.07176800000002004 -0.1947084999999333 0
 0.0941002000000708 -0.05999999999994543 0
 0.09447820000002594 -0.08399999999994634 0
 -0.0943697999999813 -0.07199999999988904 0
 0.09223075000011249 -0.1319999999998345 0
 0.08379355000010946 -0.1679999999998927 0
 0.08398215000011078 -0.1490889999997762 0
 0.07456910000007611 -0.1903542499999276 0
 0.09432995000008759 -0.1079999999999472 0
 0.08296520000010332 0 0
 0.09188110000002325 -0.04199999999997317 0
 0.08393960000000789 -0.02333894999998165 0
 -0.005999999999993122 0.05391685000000734 0
 0.01800000000000068 0.05385190000004059 0
 0.0718850000000657 0.01711990000001151 0
 0.05991805000002159 0.02991415000002462 0
 0.04760705000001053 0.04189385000000811 0
 0.03600000000000136 0.0531409000000167 0
 -0.02999999999997272 0.05347605000002886 0
 -0.04760704999995369 0.04189385000000811 0
 -0.05991804999996475 0.02991415000002462 0
 -0.07090231318920814 0.01817052198208557 0
 -0.08452329999988706 -0.02933894999998188 0
 -0.08569202499995754 -0.1465444999998908 0
 0.02400000000000091 -0.2335449999998218 0
 0.006000000000000227 -0.2338294999999562 0
 -0.04199999999997317 -0.2217279999999846 0
 -0.01799999999997226 -0.2336784999999963 0
 -0.03897989999995843 -0.2218639999998686 0
 -0.08379354999999578 -0.1679999999998927 0
 -0.07468509999989692 -0.1887084999998478 0
 -0.05974424999999428 -0.2097744999998667 0
 -0.07311054999991029 -0.1933542499998566 0
 -0.08741974999998092 -0.1430889999999181 0
 -0.09445669999990969 -0.09599999999988995 0
 -0.09393919999990885 -0.1199999999998909 0
 -0.08296519999998964 0 0
 -0.09289419999993243 -0.04799999999994498 0
 -0.08420124999997824 -0.02366947499999128 0
 -0.07188499999995202 0.01711990000001151 0
 0.08449310000003152 -0.02666947499997718 0
 0.03874117454830639 -0.211863293120814 0.2494828800001869
 0.05288539830507943 -0.2023373743566026 0.2494828800001869
 0.03176381908917847 -0.2121660103089198 0.2494828800001869
 -0.01534864439037165 -0.2236949835221367 0.2494828800001869
 -0.03614947326190077 -0.211981324605631 0.2494828800001869
 0.06363384059739019 -0.1888693605028493 0.2494828800001869
 0.005952433996775142 -0.2238290028069514 0.2494828800001869
 0.01989790934101165 -0.2236085868216833 0.2494828800001869
 0.06566998930907175 -0.1857042109088525 0.2494828800001869
 -0.05277548894872552 0.02291135387025633 0.2494828800001869
 0.07381329830934646 -0.165969964940814 0.2494828800001869
 0.08242844658957438 -0.1293032492856128 0.2494828800001869
 0.07400493350439774 -0.146754624684263 0.2494828800001869
 0.08433264590826184 -0.1075326778072849 0.2494828800001869
 0.08410986667649922 -0.06069250234844503 0.2494828800001869
 0.08215772349785766 -0.04485789497829273 0.2494828800001869
 0.07397398162663649 -0.02437112186012769 0.2494828800001869
 0.07486309973239713 -0.02972113103643892 0.2494828800001869
 0.07308770926874786 -0.003143016107159724 0.2494828800001869
 0.06397360761172877 0.01093908610754113 0.2494828800001869
 0.05277548894878237 0.02291135387025633 0.2494828800001869
 0.03178610342712318 0.04329955070528513 0.2494828800001869
 0.04064064346573559 0.03471963982860871 0.2494828800001869
 0.01778905138732512 0.04385243426082752 0.2494828800001869
 -0.02692243059337329 0.04353088816145601 0.2494828800001869
 -0.005921704662391392 0.04391660149440213 0.2494828800001869
 -0.04131565263298853 0.03406279576051929 0.2494828800001869
 -0.07311816351329981 -0.003190070638861897 0.2494828800001869
 -0.06397360761161508 0.01093908610754113 0.2494828800001869
 -0.07421604894318534 -0.02421379276725588 0.2494828800001869
 -0.07464403833341748 -0.03174825992397245 0.2494828800001869
 -0.0830248010493051 -0.05043129664397838 0.2494828800001869
 -0.08437091198902635 -0.07232521271498626 0.2494828800001869
 -0.08445630966787121 -0.09591030238539133 0.2494828800001869
 -0.0839690104279498 -0.1185096874264673 0.2494828800001869
 -0.07805283113191308 -0.1394621701917913 0.2494828800001869
 -0.0758983475069499 -0.1437711997921269 0.2494828800001869
 -0.07397747710740532 -0.1654798000417941 0.2494828800001869
 -0.06535495210698627 -0.1850835261388966 0.2494828800001869
 -0.06421794142863746 -0.1884383051924488 0.2494828800001869
 -0.0387432418726803 -0.211864522999349 0.2494828800001869
 -0.05292600929647051 -0.2023102329956146 0.2494828800001869
 0.08447771357771217 -0.0840478611587514 0.2494828800001869
 }
Edges (  324) {
 0 1
 2 1
 2 0
 3 4
 5 4
 3 5
 6 5
 6 4
 3 6
 7 6
 3 7
 8 9
 4 8
 9 4
 9 7
 8 7
 8 3
 10 6
 10 4
 9 10
 1 11
 1 12
 11 12
 6 11
 6 0
 0 11
 13 14
 13 15
 15 14
 16 17
 17 18
 18 16
 6 12
 6 19
 12 19
 6 17
 19 17
 10 20
 6 20
 21 22
 23 22
 23 21
 10 14
 20 14
 10 13
 10 22
 13 22
 10 24
 25 24
 10 25
 10 26
 21 26
 10 21
 10 27
 26 27
 10 28
 27 28
 10 29
 28 29
 16 20
 18 20
 9 24
 9 30
 24 30
 9 31
 30 31
 9 32
 31 32
 33 9
 32 33
 13 34
 15 34
 1 18
 1 35
 35 18
 36 2
 36 1
 6 2
 7 37
 6 37
 38 39
 40 39
 40 38
 7 39
 37 39
 7 41
 42 41
 7 42
 7 43
 43 38
 7 38
 7 44
 44 43
 45 41
 41 35
 35 45
 9 46
 7 46
 47 41
 45 47
 48 49
 50 49
 50 48
 9 15
 46 15
 9 49
 15 49
 47 35
 35 46
 47 46
 9 51
 51 48
 9 48
 33 51
 50 23
 50 24
 24 23
 43 40
 42 40
 43 42
 36 37
 1 37
 44 42
 35 40
 1 40
 23 26
 32 50
 33 50
 27 23
 25 27
 27 24
 28 25
 29 25
 24 32
 31 24
 35 20
 23 34
 34 50
 50 51
 6 16
 22 52
 52 23
 14 46
 13 52
 34 52
 20 46
 12 18
 19 18
 6 36
 7 47
 49 34
 42 35
 37 40
 53 54
 54 55
 53 55
 40 56
 57 56
 40 57
 11 58
 12 58
 37 56
 59 56
 37 59
 36 60
 37 60
 1 60
 2 53
 1 53
 0 53
 12 61
 58 61
 33 62
 32 62
 19 63
 61 63
 19 61
 17 63
 18 63
 18 64
 65 64
 18 65
 16 64
 20 64
 20 66
 14 66
 13 67
 14 67
 13 68
 67 68
 22 68
 52 68
 52 69
 70 69
 52 70
 23 71
 69 71
 23 69
 21 71
 26 71
 26 72
 27 72
 27 73
 28 73
 28 74
 75 74
 28 75
 29 74
 25 74
 25 76
 24 76
 24 77
 78 77
 24 78
 30 77
 31 77
 31 79
 32 79
 51 80
 81 80
 51 81
 50 80
 82 80
 50 82
 34 82
 83 82
 34 83
 49 84
 34 84
 15 84
 85 84
 15 85
 46 85
 86 85
 46 86
 47 87
 46 87
 45 87
 88 87
 45 88
 35 88
 89 88
 35 89
 41 90
 35 90
 42 90
 91 90
 42 91
 44 92
 42 92
 43 92
 43 93
 94 93
 43 94
 40 93
 57 93
 64 66
 65 66
 90 89
 89 91
 83 85
 83 67
 67 85
 62 82
 81 82
 62 81
 76 73
 73 75
 76 75
 58 55
 54 58
 57 59
 0 54
 11 54
 33 81
 57 89
 89 55
 57 55
 87 86
 87 66
 66 86
 67 70
 83 70
 83 69
 69 82
 72 69
 71 72
 73 69
 72 73
 78 69
 78 73
 89 66
 65 89
 79 62
 79 78
 62 78
 77 79
 55 65
 84 83
 76 78
 57 91
 91 94
 92 94
 92 91
 57 94
 39 56
 60 59
 60 55
 1 55
 63 65
 66 95
 14 95
 67 95
 68 70
 74 76
 48 80
 38 93
 85 95
 95 86
 82 78
 87 89
 61 55
 61 65
 59 55
 }
Faces (  231) {
 3 0 -2 2
 3 3 -5 -6
 3 6 4 -8
 3 5 -7 -9
 3 8 -10 -11
 3 -12 -13 -14
 3 11 14 -16
 3 -17 -13 -4
 3 15 -11 -17
 3 -18 18 -8
 3 -20 13 -19
 3 -21 21 -23
 3 -24 24 25
 3 -27 27 28
 3 29 30 31
 3 -24 32 -23
 3 33 -35 -33
 3 35 -37 -34
 3 -18 37 -39
 3 39 -41 41
 3 42 -44 -38
 3 44 26 -43
 3 45 -47 -45
 3 47 -49 -50
 3 50 -52 -53
 3 53 -55 -51
 3 55 -57 -54
 3 57 -59 -56
 3 31 59 -61
 3 19 47 -62
 3 62 -64 -62
 3 64 -66 -63
 3 66 -68 -65
 3 -69 -70 -67
 3 70 -72 -28
 3 -73 73 74
 3 75 1 -77
 3 77 2 -25
 3 -10 78 -80
 3 80 -82 82
 3 83 -85 -79
 3 85 -87 -88
 3 88 89 -91
 3 91 92 -89
 3 93 94 95
 3 -15 96 -98
 3 98 -94 99
 3 100 -102 102
 3 103 -105 -97
 3 105 -107 -104
 3 107 108 -110
 3 110 111 -113
 3 -69 113 -111
 3 -115 115 116
 3 117 -119 -120
 3 -77 120 -122
 3 -93 122 -120
 3 73 123 -125
 3 125 -52 -42
 3 -70 126 -128
 3 128 125 54
 3 -49 129 130
 3 131 -133 -59
 3 115 133 126
 3 129 56 131
 3 65 134 63
 3 134 133 -68
 3 116 -129 130
 3 -90 117 82
 3 99 107 95
 3 135 -61 -75
 3 114 136 137
 3 138 111 -103
 3 127 138 -114
 3 139 29 -36
 3 38 -60 -140
 3 40 140 141
 3 52 39 -46
 3 49 -133 -58
 3 104 28 142
 3 -144 70 144
 3 143 -141 -47
 3 145 -143 -44
 3 146 -148 -35
 3 147 -31 -37
 3 21 146 -73
 3 148 75 -78
 3 79 -121 -149
 3 90 80 -84
 3 87 -123 -92
 3 149 98 -86
 3 97 -110 -150
 3 101 150 137
 3 112 100 -106
 3 144 141 136
 3 71 -151 -107
 3 -109 135 145
 3 151 -95 -87
 3 118 -124 -152
 3 152 81 -85
 3 121 152 -125
 3 20 -26 0
 3 153 154 -156
 3 156 -158 -159
 3 -23 159 -161
 3 161 -163 -164
 3 -121 164 -166
 3 -77 164 -167
 3 -2 167 -169
 3 -3 167 -170
 3 170 -172 -161
 3 69 172 -174
 3 174 -176 -177
 3 -31 177 -179
 3 179 -181 -182
 3 -60 182 -184
 3 -44 184 -186
 3 -27 186 -188
 3 188 -190 -187
 3 -141 190 -192
 3 192 -194 -195
 3 195 -197 -198
 3 -52 198 -200
 3 -55 200 -202
 3 -57 202 -204
 3 204 -206 -207
 3 -133 207 -209
 3 -49 209 -211
 3 211 -213 -214
 3 -66 214 -216
 3 -68 216 -218
 3 218 -220 -221
 3 221 -223 -224
 3 224 -226 -227
 3 -151 227 -229
 3 229 -231 -232
 3 232 -234 -235
 3 -110 235 -237
 3 237 -239 -240
 3 240 -242 -243
 3 -95 243 -245
 3 245 -247 -248
 3 -123 248 -250
 3 -93 248 -251
 3 251 -253 -254
 3 254 -256 -159
 3 180 256 -258
 3 -259 -247 -260
 3 -261 261 262
 3 263 -265 -266
 3 266 267 -269
 3 219 -223 -265
 3 154 -270 -271
 3 157 -163 -272
 3 -26 272 -274
 3 113 220 -275
 3 275 276 -278
 3 -279 279 280
 3 261 281 -283
 3 282 193 -284
 3 284 -226 283
 3 285 196 286
 3 287 -286 288
 3 289 -288 -291
 3 291 -258 292
 3 -294 294 -296
 3 294 212 296
 3 276 297 292
 3 260 230 298
 3 -300 266 -291
 3 275 259 -301
 3 301 -303 303
 3 300 301 -305
 3 304 252 -256
 3 -82 156 -306
 3 -85 161 -306
 3 165 306 -164
 3 166 307 -309
 3 168 155 -309
 3 169 153 -273
 3 -35 170 -177
 3 -37 174 -178
 3 178 309 -182
 3 -32 179 -183
 3 183 256 -185
 3 185 310 -312
 3 187 312 -312
 3 -47 188 -191
 3 191 313 -195
 3 -142 192 -198
 3 -42 195 -199
 3 199 286 -201
 3 201 288 -203
 3 203 267 -207
 3 -59 204 -208
 3 208 314 -210
 3 210 299 -214
 3 -64 211 -215
 3 215 296 -217
 3 217 293 -174
 3 -112 218 -316
 3 -103 221 -316
 3 -138 224 -224
 3 228 298 -227
 3 -107 229 -228
 3 -105 232 -232
 3 236 278 -235
 3 -100 237 -236
 3 -96 240 -240
 3 244 258 -243
 3 -87 245 -244
 3 249 303 -248
 3 250 302 -254
 3 -90 251 -317
 3 -83 254 -317
 3 -313 262 317
 3 317 318 233
 3 281 -314 -190
 3 280 -319 -311
 3 289 284 319
 3 319 -296 263
 3 279 -292 -321
 3 320 241 238
 3 268 205 314
 3 321 297 -323
 3 322 -310 -176
 3 171 321 -270
 3 323 -308 306
 3 271 323 -278
 3 273 270 -160
 3 274 -266 -173
 }
Locations (  231) {
f e e e e e e e e e e f e f e e e e e e e e e e e e e e f e
e e e e f f e e e e e e e e e e e e e e f e e f f f f f f f
f f f f f f f f f f f f f f e e e e e f f f f f f f e e e e
e e e e f f f f f f f f e e e e e e e e e e e e e e e e e e
e e e e e e e e e e e e e e e e e e e e e e e e e e e e e e
e e e e e e e e e e e e e e e e e e e e e e e e e e e e e e
e e e e e e e e e e e e e e e e e e e e e e e e e e e e e e
e e e e e e e e e e e e e e e e e e e e e }
Elements (  2) {
 10 102 0 1 2 3 4 -6 -7 7 -9 -10 -11 -12 -13 13 -15 15 16 17 18 -20 20 21 22 23 24 25 26 27 28 -30
 30 31 32 33 34 -36 36 -38 -39 39 -41 -42 -43 -44 44 -46 46 47 -49 -50 50 -52 -53 -54 54 -56 -57 57 -59 -60
 60 -62 -63 63 64 65 -67 67 -69 -70 -71 -72 72 -74 74 75 -77 77 78 -80 -81 -82 -83 -84 -85 85 -87 -88 -89 -90
 -91 -92 92 -94 94 95 96 97 98 99 -101 -102
 10 172 101 102 103 -105 -106 106 -108 108 -110 110 111 112 -114 114 -116 -117 117 118 -120 120 121 -123 -124 -125 125 -127 -128 128 -130 -131
 131 -14 -133 -134 134 -136 -137 137 -139 -140 140 -142 142 -144 144 -146 -29 -35 35 -51 53 -55 55 56 -58 146 147 -149 -150 150
 151 -153 153 -155 155 58 59 -61 61 62 -64 -65 -66 66 -68 68 69 70 71 -73 73 -157 157 158 159 160 161 162 163 -165
 -166 166 167 -169 -170 170 -172 172 173 -175 175 176 -178 178 -180 -181 -182 -183 -184 -185 -186 186 -188 -189 -190 -191 -192 -193 -194 -195
 -196 -197 -198 -199 -200 -201 201 202 203 204 205 206 207 208 209 210 211 -213 -214 214 79 80 81 82 83 84 -86 -95 -96 -97
 -98 -99 -100 100 -1 11 215 -217 -218 -219 -220 220 -222 -223 223 -225 -226 226 -228 228 -230 230
 }
Region ("Oxide") {
material =Oxide
Elements ( 1) {
 0}
}
Region ("Metal_pattern0") {
material =Metal
Elements ( 1) {
 1}
}
}


