DF-ISE text

# filename: after_line_ref.bnd
# written by the library Delaunay
Info {
version     =  1.1
type        = boundary
dimension   =  3
nb_vertices =  2120
nb_edges    =  6429
nb_faces    =  4312
nb_elements =  2
nb_regions  =  2
regions     = [ "Oxide" "Metal_pattern0" ]
materials     = [ Oxide Metal ]
 }
Data {
CoordSystem {
translate = [  0  0  0 ]
transform = [  1  0  0  0  1  0  0  0  1 ]
 }
Vertices (  2120) {
 -0.02848994999996535 -0.2277712499999325 0
 -0.01799001278872408 -0.2219833076152632 -0
 -0.02640133637380322 -0.2138575916340469 -0
 0.02400000000000091 -0.2335449999998218 0
 0.01500000000000057 -0.233687249999889 0
 0.01474666114794635 -0.2176587813361779 0
 0.03597990000002937 -0.2219924999999421 0
 0.03939315747795401 -0.2062250034004883 -0
 0.02658098520011816 -0.213859445078555 -0
 -0.06642739999995229 -0.2015643749998617 0
 -0.0634100268620693 -0.1902662222990398 -0
 -0.05542599705854442 -0.1965821808426998 -0
 0.06870899544714489 -0.123896728028312 -0
 0.05065259863037663 -0.1176512168984601 -0
 0.05886578207940761 -0.1321452187349197 -0
 -0.06465699621103346 -0.05960628712631266 -0
 -0.04908503227530512 -0.06815625601685048 -0
 -0.05904089153853605 -0.07373735786220849 -0
 0.08393960000000789 -0.02333894999998165 0
 0.07434513346307535 -0.03118969297973977 -0
 0.06804968324845637 -0.02203650216915324 -0
 -0.08296519999998964 0 0
 -0.09394478901948182 -0.002700986428524055 -0
 -0.08928675987519075 0.01219549514266507 -0
 -0.08358322499998394 -0.01183473749999564 0
 -0.09539973333421149 -0.02215105880296771 -0
 -0.1003726765637331 -0.01200308105513836 -0
 -0.1372256024139089 -0.2037808115595825 -0
 -0.1414696645483118 -0.2171874999999092 -0
 -0.1299975229720801 -0.2157070450627697 -0
 -0.1330178923052704 -0.1276628635580345 -0
 -0.1161556747142458 -0.1288461881055802 -0
 -0.1202775702424756 -0.1394503027769504 -0
 -0.07468509999989692 -0.1887084999998478 0
 -0.09077492957523807 -0.1834718506350358 -0
 -0.08381478951951168 -0.1987199122109262 -0
 -0.08994503589154025 -0.3362170916883961 -0
 -0.1031249999998706 -0.3306731887768746 -0
 -0.09321263298825876 -0.3173622935871148 -0
 0.1500000000000909 -0.3499999999999091 0
 0.1391793055080187 -0.3404526666094213 -0
 0.1500000000000909 -0.3343749999999091 0
 0.1500000000000909 -0.2874999999999091 0
 0.136494779767826 -0.2806018830007206 -0
 0.1427192335954122 -0.2948022414715124 -0
 0.08379355000010946 -0.1679999999998927 0
 0.07286505972602922 -0.1512679819952702 -0
 0.06741929008208722 -0.1612018257470053 -0
 0.06148749020949554 -0.1779191252657554 -0
 0.04998378074491926 -0.164416569156533 -0
 0.07456910000007611 -0.1903542499999276 0
 0.07918132500009278 -0.1791771249999101 0
 -0.09445669999990969 -0.09599999999988995 0
 -0.08181425292033023 -0.1062319731558868 -0
 -0.07909246029587673 -0.09402239833981051 -0
 0.05285974679358588 -0.04930971976573561 -0
 0.03679717185288212 -0.05393876207988194 -0
 0.04198259408990131 -0.04174921268168556 -0
 0.07718928668657239 -0.07281925696885906 -0
 0.07952188825139032 -0.05833247768370817 -0
 0.06504888640179374 -0.0607490913430339 -0
 0.007359481868292955 -0.04744336112501192 -0
 0.002899955105592305 -0.06576562024025054 -0
 -0.003213035954598671 -0.05457391484191788 -0
 0.01875000000011084 0.1500000000000909 0
 0.02883959704762708 0.1414891908124056 -0
 0.01749798025763271 0.1371528120331188 -0
 0.1381196963508452 0.001697787472840804 -0
 0.138618549273935 -0.01756291113499342 -0
 0.1294916903719116 -0.009511080436735786 -0
 0.1020841744977913 -0.02376206363192917 -0
 0.1077900302063724 -0.03892714543573984 -0
 0.119473440156216 -0.02770063986065938 -0
 0.1306125255588254 -0.1797793531593175 -0
 0.1383495163706193 -0.1894801106910226 0
 0.125534487990941 -0.1897930877102161 -0
 0.09328035000010004 -0.1199999999998909 0
 0.1069763430436843 -0.1248606328790644 -0
 0.1024342967881739 -0.1147547627056444 -0
 -0.05451385658682937 -0.002666270298036193 -0
 -0.06923782380535623 -0.006650366767311036 -0
 -0.06477825880415193 0.005558734925839753 -0
 -0.05270229529343069 -0.01742851334238328 -0
 -0.05630033462183563 -0.03185971866319292 -0
 -0.04612650810220778 -0.02673215257102713 -0
 -0.04600673595724551 -0.03962674620020621 -0
 -0.09393919999990885 -0.1199999999998909 0
 -0.07567284669634843 -0.1224068386678887 -0
 -0.08569202499995754 -0.1465444999998908 0
 -0.06929653780709562 -0.1534999203559066 -0
 -0.07241313657752523 -0.1379081304451275 -0
 -0.05974424999999428 -0.2097744999998667 0
 -0.0435715881889976 -0.1988900187166613 -0
 0.008233905675935049 0.03186053644063537 -0
 -0.003395742100851943 0.02417798418182708 0
 0.00720550087059714 0.02077370360392639 -0
 -0.04760704999995369 0.04189385000000811 0
 -0.0388035249999632 0.04768495000001849 0
 -0.03847029710420315 0.03126554870900754 -0
 -0.03055677668169788 0.01032692307740917 -0
 -0.04593700754984534 0.005809091146663938 0
 -0.03500593485829493 0.0007193228971692759 -0
 0.0718850000000657 0.01711990000001151 0
 0.05884881673581515 0.01775527159853627 -0
 0.06382076653112782 0.006608016376359114 -0
 -0.02688465997037027 0.03915313731475034 -0
 0.03600000000000136 0.0531409000000167 0
 0.02734918379839333 0.05348260723999168 0
 0.02708063578855833 0.0466839234469287 -0
 0.01778348915478491 0.04078386678502999 -0
 0.02996910235530168 0.036058276876658 -0
 0.07251951488704397 -0.0006877860371437508 -0
 0.07282012233154653 -0.01249840178251497 -0
 0.06390845938186404 -0.00664052575938848 -0
 -0.06702439499548747 -0.0214388791791192 -0
 0.05646112290313434 -0.03298598132782087 -0
 0.05259399579794609 -0.01766748662280797 -0
 -0.03172018355389331 -0.1485923598356353 -0
 -0.01307419624162569 -0.1435891136339414 -0
 -0.01304206340433142 -0.1553880351005634 -0
 -0.07311054999991029 -0.1933542499998566 0
 0.02998995000001514 -0.2277687499998819 0
 -0.03897989999995843 -0.2218639999998686 0
 -0.04199999999997317 -0.2217279999999846 0
 -0.0399639276840761 -0.2101148235471264 -0
 0.05072900770106872 0.008642078689642231 -0
 0.04443236605825999 0.02514948490713894 -0
 0.04113184469900691 0.01443591331950202 -0
 -0.09780234297587766 0.04338281430481011 -0
 -0.08529435878862146 0.04268499346671319 -0
 -0.09200789713273889 0.03479683654608525 -0
 -0.1499999999998636 0.1500000000000909 0
 -0.1390688698614538 0.1403201438339979 -0
 -0.1312499999998664 0.1500000000000909 0
 -0.09067947499994489 -0.1315444999999045 0
 -0.0943697999999813 -0.07199999999988904 0
 -0.09441324999994549 -0.0839999999998895 0
 -0.1090191504102041 -0.08325831482054503 -0
 -0.09419794999990927 -0.1079999999998904 0
 -0.1094684846624753 -0.0978761300618657 -0
 -0.1056921427109787 -0.1243794478259332 -0
 -0.1051017651856091 -0.1369079225937672 -0
 -0.1211143301957626 -0.2066207694455786 -0
 -0.110815527272731 -0.1949835558847902 -0
 -0.1263553577315804 -0.195044796533483 -0
 -0.07929838090120768 -0.2098092371610213 -0
 -0.06931996619292054 -0.2213881464933566 -0
 -0.1499999999998636 -0.2249999999999091 0
 -0.1348742575754563 -0.2313836816618031 -0
 0.001775575309671761 -0.3319389589641842 0
 -0.01598635742037558 -0.3356628838650559 -0
 -0.005739036050582492 -0.3403179985109904 -0
 -0.04118520793889525 -0.2372353272290691 -0
 -0.03020170694734379 -0.3323290486565231 -0
 -0.01471548244405348 -0.321117248912738 -0
 0.09513948457935988 -0.3262200613986684 -0
 0.1062506074442232 -0.3219303643617277 -0
 0.09743737090532013 -0.3156372210942713 -0
 0.0419899500000156 -0.2217317499998899 0
 0.03658898776128294 -0.2346119278814848 -0
 -0.08741974999998092 -0.1430889999999181 0
 0.0941002000000708 -0.05999999999994543 0
 0.09299065000004703 -0.0509999999999593 0
 -0.07705069092718253 0.03325214858613699 -0
 -0.09079239420260862 0.02451008927937204 -0
 -0.08036877210951883 0.02329649456790868 -0
 -0.08047588675330462 0.1308155624204927 -0
 -0.09685651380155251 0.1336660012279366 -0
 -0.09500449356243353 0.1171426854310795 -0
 -0.05624999999987779 0.1500000000000909 0
 -0.049236457479713 0.1337958378722548 -0
 -0.06562499999987639 0.1374772188320407 -0
 -0.02131864896100766 0.1343604179297241 -0
 -0.02129883284811749 0.1198434533594757 -0
 -0.03407835799587321 0.1247406366604991 -0
 -0.01799999999998292 0.0536964500000181 0
 -0.01137617144327846 0.06925003728072059 -0
 -0.02761684255369079 0.06975049053172465 -0
 0.07539609970814549 -0.1357296613913009 -0
 0.06440834513732074 -0.143729969189239 -0
 0.04211311100276619 0.06445146586939395 -0
 0.05372917789931058 0.05533273905085 -0
 0.05366257512205934 0.07010026264169925 -0
 0.06996148813252345 0.06112088799663585 -0
 0.07136570324909558 0.04344942484457022 -0
 0.05935649999603233 0.04465527311360336 -0
 0.1133155089021044 0.1109375000000911 -0
 0.1022317604306655 0.1104829030470251 -0
 0.1173124146615186 0.09763944705774116 -0
 0.1234213850137657 0.02299138038309765 -0
 0.1116957589162414 0.02568313595334788 -0
 0.1148836240779307 0.01268484845434114 -0
 0.1290949582903819 0.09298234734215258 -0
 0.1308994235692894 0.103470420242264 -0
 0.136639051255013 -0.05965060225750623 -0
 0.133434527620134 -0.07735460775624807 -0
 0.1222207011892579 -0.06328510601652181 -0
 0.1376272247616985 0.02128326423599059 -0
 0.1420849439869303 0.03281250000009101 -0
 0.1309729905435153 0.03235669454504487 -0
 0.1500000000000909 -0.08437499999990905 0
 0.1360448955038686 -0.0965836242280101 -0
 0.08449310000003152 -0.02666947499997718 0
 0.09315649177080346 -0.01734936527314176 -0
 0.1362812727267668 -0.1243174608767959 -0
 0.1418679732458291 -0.1078124999999092 -0
 0.1307972425114114 -0.1099581785378203 -0
 0.1324154587744476 -0.2952078452041997 -0
 0.1269168784849411 -0.28579949757721 -0
 0.1500000000000909 -0.2406249999999091 0
 0.133102007975285 -0.2406833207433604 -0
 0.1415747121044088 -0.2475234069477938 -0
 0.09443136339523252 -0.2027873900981447 -0
 0.08013572019050581 -0.2070626189595265 -0
 0.08328552394329407 -0.1967317369685412 -0
 0.1063259119749922 -0.1423146374982601 -0
 0.09915537571907096 -0.1587502035917671 -0
 0.09659239007486969 -0.1478500501092727 -0
 0.09447820000002594 -0.08399999999994634 0
 0.09440407500005676 -0.09599999999994679 0
 0.07833352755607045 -0.08990050195106328 -0
 0.1500000000000909 -0.2249999999999091 0
 0.1374354282823976 -0.2132970499092909 -0
 0.1380066458078924 -0.2290227920825161 -0
 0.05974425000005112 -0.2097744999998667 0
 0.06323803236080039 -0.2053967206011293 0
 0.05041425973813777 -0.2031517435702271 -0
 -0.1499999999998636 0.1500000000000909 -0.01999999999998181
 0.1500000000000909 0.1500000000000909 0
 0.1500000000000909 0.1343750000000909 0
 0.1500000000000909 0.1500000000000909 -0.01999999999998181
 -0.1499999999998636 0.1421875000000909 -0.009999999999990905
 -0.1140966108458331 0.1137909330152541 -0.01999999999998181
 -0.1019293102849883 0.1307750001030604 -0.01999999999998181
 -0.1297897015707969 0.1326226418852078 -0.01999999999998181
 -0.1499999999998636 -0.09999999999990905 -0.01999999999998181
 -0.1499999999998636 -0.09218749999990905 -0.009999999999990905
 -0.1499999999998636 -0.08437499999990905 -0.01999999999998181
 1.13686837721616e-13 0.1500000000000909 0
 0.009375000000112266 0.1500000000000909 0
 1.13686837721616e-13 0.1500000000000909 -0.01999999999998181
 -0.1312499999998664 -0.3499999999999091 0
 -0.140624999999865 -0.3499999999999091 -0.009999999999990905
 -0.1499999999998636 -0.3499999999999091 0
 0.1312500000000938 -0.3499999999999091 0
 0.1500000000000909 -0.3499999999999091 -0.01999999999998181
 0.1500000000000909 -0.1156249999999091 0
 0.1500000000000909 -0.1078124999999091 -0.009999999999990905
 0.1500000000000909 -0.1156249999999091 -0.01999999999998181
 -0.1255772442391929 -0.1222977169170794 -0.01999999999998181
 -0.1189963622752202 -0.09713213796652202 -0.01999999999998181
 -0.1499999999998636 -0.3031249999999091 0
 -0.1499999999998636 -0.3109374999999091 0
 -0.1402244174255441 -0.3149482232440285 -0
 0.07176800000002004 -0.1947084999999333 0
 0.05894920117699287 -0.191015556877415 -0
 -0.05087212499998373 -0.2157512499999257 0
 -0.1308193398199214 -0.2598621047081214 -0
 -0.1340439376946312 -0.2760325422541781 -0
 -0.1176498811106418 -0.2742673253821023 -0
 -0.01250544343276355 -0.2116538776387367 0
 -0.009795680081680259 -0.1997716058537001 -0
 0.005398243604668453 -0.2065006543377662 -0
 -0.09527805140887433 -0.1952609092458821 -0
 -0.07923932499994635 -0.1783542499998703 0
 -0.06772257875542913 -0.1798968846369613 -0
 -0.0674091561109828 -0.1686708865241399 -0
 -0.08474278749997666 -0.1572722499998918 0
 -0.09753600067296482 -0.1503067271471248 -0
 -0.1053129941582884 -0.1124227943335914 -0
 -0.1161591790740067 -0.1174691384691992 -0
 -0.07906760246252761 -0.06546222076305262 -0
 -0.08446267771380045 -0.07803595070107497 -0
 -0.1217356985220181 -0.1029098387578445 -0
 -0.1327396090514422 -0.1103082650886369 -0
 0.09223075000011249 -0.1319999999998345 0
 0.08810645000011164 -0.1405444999998053 0
 -0.09363199999995686 -0.05999999999991701 0
 -0.1087618690713563 -0.06509244641813171 -0
 -0.1038820478133422 -0.05456864053128622 -0
 -0.08452329999988706 -0.02933894999998188 0
 -0.07088395249649608 -0.03588544217337386 -0
 -0.07742509999997083 0.008559950000005756 0
 -0.07708334363039977 -0.04968601859841553 -0
 -0.09289419999993243 -0.04799999999994498 0
 -0.08870874999990974 -0.03866947499996343 0
 -0.1017363154903614 -0.03977957704313569 -0
 -0.1049772249855787 -0.02814966450783557 -0
 -0.1377771815043465 0.01507891541341314 -0
 -0.140582321561315 0.03281250000009094 -0
 -0.1302436900069549 0.02626723293104824 -0
 0.1169696823840168 -0.2356540457661063 -0
 0.09968861512991306 -0.236613210078686 -0
 0.1086636940803303 -0.2430029581131432 -0
 0.04402768724228743 -0.1779912007231104 -0
 0.03249309641366434 -0.1915966462238536 -0
 0.02922245672024165 -0.1787333739976885 0
 -0.1364583333331966 -0.3371874999999082 -0
 -0.1499999999998636 -0.3343749999999091 0
 -0.03228263284815533 -0.201453894971981 -0
 -0.04458948103156645 -0.1879595889593523 -0
 -5.614777068610059e-05 -0.2199968139174618 0
 -0.1142756302621401 -0.32213312487666 -0
 -0.1037119263154227 -0.3198898941700789 -0
 -0.132613085222439 0.04377818169422117 -0
 -0.115479409044866 0.03945562447473942 -0
 -0.01656470730199424 0.02874401880199263 -0
 -0.005232239858115354 0.03879128094373611 -0
 -0.01599967860353986 0.04248891136754162 -0
 -0.043340395510527 0.1009928424176172 -0
 -0.03939228803810953 0.08906267771751643 -0
 -0.03000848803613946 0.09387518045788418 -0
 -0.02999999999997272 0.05347605000002886 0
 0.005289481059911046 0.04268709295685862 -0
 -0.002373862992120574 0.08688679164834684 -0
 0.01662160693699658 0.09254145270857411 -0
 0.004834278922856929 0.1020566920203848 -0
 0.1406250000000924 0.1500000000000909 0
 0.08296520000010332 0 0
 0.0834524000000556 -0.01166947499999083 0
 0.07742510000008451 0.008559950000005756 0
 0.1089700517557083 -0.09719312949498814 -0
 0.1113689003349264 -0.07762285696133014 -0
 0.09432995000008759 -0.1079999999999472 0
 0.08392997391453487 -0.09937590937217516 -0
 0.1500000000000909 -0.06874999999990905 0
 -0.06930659524588431 -0.1060310458586724 -0
 -0.06533099333043894 -0.0927997399524962 -0
 0.1124340609053122 -0.1113914349378774 -0
 0.1210470271658871 -0.1033894698373947 -0
 0.1220796526615066 -0.1166196842682505 -0
 0.08419112076283879 -0.1140005023485111 -0
 0.07591709343138782 -0.1069189395326632 -0
 0.1312498599861089 -0.143733236018822 -0
 0.1169063944391539 -0.1562113539682608 -0
 0.1332359204832932 -0.1604990821898255 -0
 0.02012118775248914 -0.1654202108875381 0
 0.03497325527378919 -0.1625609923989541 -0
 0.02169155523742641 -0.1543918851366927 -0
 -0.005999999999993122 0.05391685000000734 0
 0.009375000000112266 0.1500000000000909 -0.01999999999998181
 0.03569247050047366 0.1154609351580129 -0
 0.01731890211893738 0.1096507374376721 -0
 0.01791396013620826 0.1242514650943342 -0
 0.09375000000009948 0.1500000000000909 0
 0.0843750000001009 0.1500000000000909 -0.009999999999990905
 0.07500000000010232 0.1500000000000909 0
 0.08008819849111545 0.1283367208510384 -0
 0.08221655046513299 0.1149988639171417 -0
 0.09002312154706284 0.1266133950349687 -0
 0.05625000000010516 0.1500000000000909 0
 0.07500000000010232 0.1500000000000909 -0.01999999999998181
 0.02932555326622802 0.06578465511040549 -0
 0.03680083059063795 0.07797206711692371 -0
 0.05625000000010516 0.1500000000000909 -0.01999999999998181
 0.002619403246717845 0.06756914973139649 -0
 0.0150299225816564 0.06600311751860355 -0
 0.01195724740264154 0.0781287974706168 -0
 0.09375000000009948 0.1500000000000909 -0.01999999999998181
 0.06851681269458954 0.13704806157834 -0
 0.07925776283047664 0.1397701731682359 -0
 0.1312500000000938 0.1500000000000909 0
 0.1218750000000952 0.1500000000000909 -0.009999999999990905
 0.1125000000000966 0.1500000000000909 0
 0.1500000000000909 0.08750000000009095 0
 0.1404525835578829 0.09618816115322944 -0
 0.1362933062556695 0.08514400857226803 -0
 0.1312500000000938 0.1500000000000909 -0.01999999999998181
 0.1500000000000909 0.04062500000009095 0
 0.1359761734560332 0.04686999162172609 -0
 0.005139027461831975 0.1211686358450747 -0
 -0.01874999999988347 0.1500000000000909 0
 -0.009374999999884892 0.1500000000000909 -0.009999999999990905
 -0.06250643529107412 0.1221479909539034 -0
 -0.07499999999987494 0.1500000000000909 0
 -0.08437499999987352 0.1500000000000909 0
 -0.07499999999987494 0.1500000000000909 -0.01999999999998181
 -0.03749999999988063 0.1500000000000909 0
 -0.02812499999988205 0.1500000000000909 0
 -0.03690788441013395 0.1372187781122291 -0
 -0.06562499999987637 0.1500000000000909 -0.009999999999990905
 -0.05624999999987779 0.1500000000000909 -0.01999999999998181
 -0.1124999999998693 0.1500000000000909 0
 -0.1031249999998707 0.1500000000000909 0
 -0.1124999999998693 0.1500000000000909 -0.01999999999998181
 -0.04531533426804799 0.060893209621696 -0
 -0.04304805986082551 0.07544385390089901 -0
 -0.05801147188682578 0.07621169406135274 -0
 -0.1218749999998678 0.1500000000000909 0
 -0.1499999999998636 0.05625000000009095 0
 -0.1422121663403585 0.06432432438472239 -0
 -0.1382984014039435 0.05420772913833979 -0
 -0.1297897015707969 0.1500000000000909 -0.01999999999998181
 -0.1025431149225563 0.09983588480291006 -0
 -0.08789974025230413 0.109344317868939 -0
 0.1396301364046011 -0.1512410754580009 -0
 0.1392662115476747 -0.1354507881273778 -0
 0.1500000000000909 -0.09999999999990905 0
 0.1500000000000909 -0.2328124999999091 -0.009999999999990905
 0.09043631756687392 -0.1886376318947417 -0
 0.08942939859675841 -0.1768658016395823 -0
 0.1500000000000909 -0.2093749999999091 0
 0.1500000000000909 -0.2015624999999091 -0.009999999999990905
 0.1500000000000909 -0.1937499999999091 0
 0.1139115544093757 -0.1897637716327197 -0
 0.1157254600301266 -0.1726675811931273 -0
 0.09992113434842152 -0.1774031181533318 -0
 0.1500000000000909 -0.2249999999999091 -0.01999999999998181
 0.1500000000000909 -0.2093749999999091 -0.01999999999998181
 0.1500000000000909 -0.1781249999999091 0
 0.1125624730794614 -0.2081460492078903 -0
 0.09577987996023002 -0.2157665949547296 -0
 0.1500000000000909 -0.1937499999999091 -0.01999999999998181
 0.1500000000000909 -0.1624999999999091 0
 0.1500000000000909 -0.1468749999999091 0
 0.1500000000000909 -0.1390624999999091 -0.009999999999990905
 0.1500000000000909 -0.1312499999999091 0
 0.121256345995391 -0.1275601686049355 -0
 0.1500000000000909 -0.1312499999999091 -0.01999999999998181
 0.1500000000000909 -0.2406249999999091 -0.01999999999998181
 0.09855843554371009 -0.2475723896197378 -0
 0.08419755363484409 -0.2385883840463105 -0
 0.1500000000000909 -0.3031249999999091 0
 0.1500000000000909 -0.2953124999999091 -0.009999999999990905
 0.1500000000000909 -0.2718749999999091 0
 0.1379838592205804 -0.2680929053677004 -0
 0.1500000000000909 -0.2796874999999091 -0.009999999999990905
 0.06127847069185612 -0.2277220823697965 -0
 0.06765773059803615 -0.2422464626751614 -0
 0.07299243821797841 -0.2312402942071836 -0
 0.1500000000000909 -0.2640624999999091 -0.009999999999990905
 0.07082194320221034 -0.2150502745804723 -0
 0.1500000000000909 -0.3187499999999091 0
 0.1500000000000909 -0.3187499999999091 -0.01999999999998181
 0.04956105932956661 -0.2314023414880268 -0
 0.1500000000000909 -0.3265624999999091 -0.009999999999990905
 1.13686837721616e-13 -0.3499999999999091 0
 0.009375000000112266 -0.3499999999999091 0
 0.1500000000000909 -0.3343749999999091 -0.01999999999998181
 0.1173431334993618 -0.3014519252595425 -0
 0.1075737056659893 -0.3100936434018337 -0
 0.1059125019836346 -0.2977303278526197 -0
 0.1500000000000909 -0.09218749999990905 -0.009999999999990905
 0.1500000000000909 -0.08437499999990905 -0.01999999999998181
 0.09867503616423194 -0.03370070432727431 -0
 0.1500000000000909 0.03281250000009095 -0.009999999999990905
 0.1500000000000909 0.02500000000009095 0
 0.1285376627148861 0.01210287461261035 -0
 0.120736375462536 0.0006317349677237157 -0
 0.1500000000000909 0.009375000000090949 0
 0.1500000000000909 0.001562500000090949 -0.009999999999990905
 0.1500000000000909 -0.006249999999909051 0
 0.1500000000000909 -0.03749999999990905 0
 0.1356084550528576 -0.02935574216876496 -0
 0.1326998559255521 -0.04531249999990902 -0
 0.1500000000000909 0.01718750000009095 -0.009999999999990905
 0.09642474518086838 -0.006854378910018171 -0
 0.09476869771175707 0.006883320920225512 -0
 0.1500000000000909 -0.02187499999990905 0
 0.1500000000000909 -0.006249999999909051 -0.01999999999998181
 0.1500000000000909 -0.05312499999990905 0
 0.1500000000000909 -0.06093749999990905 -0.009999999999990905
 0.1079161243128239 -0.06373398551128688 -0
 0.1146851449968968 -0.05129583781477375 -0
 0.1500000000000909 -0.06874999999990905 -0.01999999999998181
 0.09428920000004837 -0.07199999999994589 0
 0.1500000000000909 0.04062500000009095 -0.01999999999998181
 0.09138794817411566 0.02012239935052296 -0
 0.07644001355434743 0.03037962191403666 -0
 0.1500000000000909 0.1031250000000909 0
 0.1500000000000909 0.09531250000009095 -0.009999999999990905
 0.05991805000002159 0.02991415000002462 0
 0.1500000000000909 0.07187500000009095 0
 0.1500000000000909 0.08750000000009095 -0.01999999999998181
 0.08428009234857281 0.06824974571442942 -0
 0.08110085208286297 0.05311452482519646 -0
 0.1500000000000909 0.07187500000009095 -0.01999999999998181
 0.1500000000000909 0.1187500000000909 0
 0.1500000000000909 0.1187500000000909 -0.01999999999998181
 0.1376784347687855 0.1145745062138823 -0
 0.1411864079321193 0.1265625000000909 -0
 0.1500000000000909 0.1265625000000909 -0.009999999999990905
 0.103125000000098 0.1397052186862618 -0
 0.09003663022829722 0.1372023104480627 -0
 0.1500000000000909 0.1343750000000909 -0.01999999999998181
 0.1335603817877385 0.1371544572374222 -0
 0.117994459464888 0.135321102082508 -0
 0.1295515432540162 0.124733706596548 -0
 -0.1182937634383858 -0.3188275161261345 -0.01999999999998181
 -0.1499999999998636 -0.3343749999999091 -0.01999999999998181
 -0.1312499999998664 -0.3499999999999091 -0.01999999999998181
 -0.1499999999998636 -0.3499999999999091 -0.01999999999998181
 -0.1499999999998636 -0.3421874999999091 -0.009999999999990905
 -0.1499999999998636 -0.1078124999999089 -0.01152587890624221
 0.1312500000000938 -0.3499999999999091 -0.01999999999998181
 -0.1499999999998636 -0.1624999999999091 0
 -0.1499999999998636 -0.1507812499999089 -0.0130517578124936
 -0.1499999999998636 -0.1703124999999091 -0.009999999999990905
 0.131219677439567 -0.2406249999999092 -0.01999999999998181
 0.1303720815364306 -0.2139411720876303 -0.01999999999998181
 -0.1499999999998636 -0.1624999999999091 -0.01999999999998181
 -0.1499999999998636 -0.1312499999999091 -0.01999999999998181
 -0.1326787405279487 -0.1468749999999091 -0.01999999999998181
 -0.1499999999998636 -0.1156249999999091 -0.01999999999998181
 -0.01026480266814194 -0.1956758605412406 -0.01999999999998181
 0.008118681861107185 -0.2173736754751048 -0.0199999999999818
 0.01279394019254706 -0.1947759448339565 -0.01999999999998181
 -0.1499999999998636 -0.2796874999999091 -0.009999999999990905
 -0.1499999999998636 -0.2953124999999091 -0.009999999999990905
 -0.1499999999998636 -0.2874999999999091 -0.01999999999998181
 0.08799749718651918 -0.268395726150399 -0.01999999999998181
 0.08279050211942013 -0.3005129599454496 -0.01999999999998181
 0.06718435764330367 -0.2842086609977426 -0.01999999999998181
 -0.1499999999998636 -0.2874999999999091 0
 -0.08641478154311304 -0.2332489330054422 -0.0199999999999818
 -0.1131821340754999 -0.2247856907544079 -0.0199999999999818
 -0.1093140797688372 -0.24645474830422 -0.0199999999999818
 0.01417301384257971 -0.3092253920574861 -0.01999999999998181
 -0.0007082730201200374 -0.2887895072596914 -0.01999999999998181
 -0.01454695023056325 -0.3220930335930128 -0.01999999999998181
 0.08009176094592242 -0.2121334449165719 -0.01999999999998181
 0.05547513493387341 -0.1968544872569767 -0.01999999999998181
 0.05320332347590815 -0.219130765834621 -0.01999999999998181
 -0.1499999999998636 -0.09999999999990905 0
 0.1030179240820336 0.05808910520546691 -0.01999999999998181
 0.1222811838634594 0.03554167660864137 -0.01999999999998181
 0.09758206618210334 0.0339425734893959 -0.01999999999998181
 -0.1499999999998636 0.01718750000009095 -0.009999999999990905
 -0.1499999999998636 0.02500000000009095 0
 -0.1499999999998636 0.03281250000009095 -0.009999999999990905
 -0.02551104663643031 -0.05822338792021658 -0.01999999999998181
 -0.04724513760287635 -0.037489332712826 -0.01999999999998181
 -0.01590022842736212 -0.03640649414425769 -0.0199999999999818
 -0.1499999999998636 -0.04531249999990905 -0.009999999999990905
 -0.1499999999998636 -0.03749999999990905 0
 -0.1499999999998636 -0.02968749999990905 -0.009999999999990905
 0.05619427180181409 0.1246058262717218 -0.01999999999998181
 0.0328205152872073 0.1034396418272231 -0.01999999999998181
 0.03539259902159828 0.1288704975717702 -0.01999999999998181
 -0.1499999999998636 -0.03749999999990905 -0.01999999999998181
 -0.1179291402978998 0.0496996797891476 -0.01999999999998181
 -0.1199786063036191 0.01919001401392567 -0.0199999999999818
 -0.09151579064283204 0.03036624509977921 -0.01999999999998181
 -0.1499999999998636 0.07968750000009095 -0.009999999999990905
 -0.1499999999998636 0.09531250000009095 -0.009999999999990905
 -0.1499999999998636 0.08750000000009095 -0.01999999999998181
 -0.0310445709090495 0.06294444482556685 -0.01999999999998181
 -0.05710182435446115 0.08088153237084801 -0.01999999999998181
 -0.03258201744853668 0.08860625575571726 -0.01999999999998181
 -0.1499999999998636 0.08750000000009095 0
 -0.08383578370617661 0.1203286594173048 -0.01999999999998181
 -0.06894124993195526 0.09797564235695486 -0.01999999999998181
 -0.05392113407001235 0.1123553750984196 -0.01999999999998181
 -0.1499999999998636 0.1343750000000909 -0.01999999999998181
 -0.1395487323028883 -0.1188786102965556 -0
 -0.1399139425182152 -0.1027164044494836 -0
 -0.1499999999998636 -0.2171874999999091 -0.009999999999990905
 -0.1499999999998636 -0.2328124999999091 -0.009999999999990905
 -0.1499999999998636 -0.2249999999999091 -0.01999999999998181
 -0.1016231249165822 -0.1620425495838949 -0
 -0.1313015495118112 -0.1559232409341829 -0
 -0.1361187180519949 -0.1420334947612971 -0
 -0.1499999999998636 -0.2093749999999091 -0.01999999999998181
 -0.1499999999998636 -0.1781249999999091 -0.01999999999998181
 -0.09479913484551537 -0.1712786543834807 -0
 -0.1499999999998636 -0.1781249999999091 0
 -0.1499999999998636 -0.1937499999999091 -0.01999999999998181
 -0.1499999999998636 -0.1937499999999091 0
 -0.1027687534845857 -0.1795465229786351 -0
 -0.1186302478263989 -0.1836448135838902 -0
 -0.1499999999998636 -0.2093749999999091 0
 -0.1094228656509513 -0.2115988388796252 -0
 -0.1499999999998636 -0.1546874999999091 0
 -0.1339939213719502 -0.1726305610664755 -0
 -0.1499999999998636 -0.1468749999999091 0
 -0.1499999999998635 -0.1386940435790156 -0.009999999999990855
 -0.1499999999998636 -0.1312499999999091 0
 -0.1499999999998636 -0.1156249999999091 0
 -0.1078263368398269 -0.2613005743990876 -0
 -0.109018600806675 -0.2450698037297344 -0
 -0.1189520821121589 -0.2546550424113352 -0
 -0.1499999999998636 -0.2406249999999091 -0.01999999999998181
 -0.1499999999998636 -0.2718749999999091 -0.01999999999998181
 -0.137952291969381 -0.2953035736089136 -0
 -0.1499999999998636 -0.2718749999999091 0
 -0.1499999999998636 -0.2562499999999091 -0.01999999999998181
 -0.1499999999998636 -0.2562499999999091 0
 -0.07409631552979654 -0.2397156751173761 -0
 -0.07887897004974752 -0.2582060428237124 -0
 -0.06133526379741952 -0.2506571453476064 -0
 -0.1499999999998636 -0.2406249999999091 0
 -0.1499999999998636 -0.3031249999999091 -0.01999999999998181
 -0.07811547011941446 -0.3383841266813796 -0
 -0.06562499999987637 -0.3499999999999091 0
 -0.0604900867027426 -0.3315939660081777 -0
 -0.1499999999998636 -0.3187499999999091 0
 -0.1499999999998636 -0.3187499999999091 -0.01999999999998181
 -0.04919578075997661 -0.2640894681180895 -0
 -0.04854474174156929 -0.2480229834064256 -0
 -0.1320428286022908 -0.3083849065903767 -0
 -0.1499999999998636 0.02500000000009095 -0.01999999999998181
 -0.1499999999998636 -0.05312499999990905 0
 -0.1381215474800227 -0.06142663132077935 -0
 -0.1343527897990174 -0.04799064127097524 -0
 -0.1119434148482644 -0.04622732724245467 -0
 -0.1499999999998636 0.009375000000090949 -0.01999999999998181
 -0.1499999999998636 -0.02187499999990905 -0.01999999999998181
 -0.1499999999998636 -0.02187499999990905 0
 -0.1339088581165019 -0.01131616609244484 -0
 -0.1375059361293379 -0.02337486677319653 -0
 -0.1499999999998636 -0.006249999999909051 -0.01999999999998181
 -0.1499999999998636 -0.006249999999909051 0
 -0.140705946864726 0.001562500000090911 -0
 -0.1499999999998636 0.009375000000090949 0
 -0.1171295733855982 -0.01306158578607093 -0
 -0.1144328883854966 0.001620159918813358 -0
 -0.124799000967003 -0.005265217994374102 -0
 -0.1499999999998636 -0.05312499999990905 -0.01999999999998181
 -0.1241755762471714 -0.06093749999990899 -0
 -0.1499999999998636 -0.06874999999990905 -0.01999999999998181