DF-ISE text

Info {
  version = 1.0
  type    = boundary
  dimension   = 3
  nb_vertices = 87
  nb_edges    = 284
  nb_faces    = 200
  nb_elements = 3
  nb_regions  = 3
  regions     = [ "Bulk" "M_NOTSN" "Gas" ]
  materials   = [ Silicon Resist Gas ]
}

Data {

  CoordSystem {
    translate = [  0.000000000000000e+00 0.000000000000000e+00 0.000000000000000e+00 ]
    transform = [  1.000000000000000e+00 0.000000000000000e+00 0.000000000000000e+00
 0.000000000000000e+00 1.000000000000000e+00 0.000000000000000e+00
 0.000000000000000e+00 0.000000000000000e+00 1.000000000000000e+00
 ]
  }

  Vertices (87) {
 2.500000000000000e+00 2.500000000000000e-01 1.000000000000000e+01
 1.600000000000000e+00 2.500000000000000e-01 1.000000000000000e+01
 2.500000000000000e+00 -7.000000000000000e-01 1.000000000000000e+01
 2.500000000000000e+00 -7.000000000000000e-01 0.000000000000000e+00
 2.500000000000000e+00 2.500000000000000e-01 0.000000000000000e+00
 1.600000000000000e+00 2.500000000000000e-01 0.000000000000000e+00
 9.000000000000000e-01 -7.000000000000000e-01 0.000000000000000e+00
 9.000000000000000e-01 -7.000000000000000e-01 1.000000000000000e+01
 6.000000000000000e-01 2.500000000000000e-01 1.000000000000000e+01
 1.530000000000000e+00 6.300000000000000e-01 1.000000000000000e+01
 2.500000000000000e+00 1.530000000000000e+00 1.000000000000000e+01
 2.500000000000000e+00 1.530000000000000e+00 0.000000000000000e+00
 1.530000000000000e+00 6.300000000000000e-01 0.000000000000000e+00
 6.000000000000000e-01 2.500000000000000e-01 0.000000000000000e+00
 3.500000000000000e-01 2.500000000000000e-01 0.000000000000000e+00
 5.400000000000000e-01 3.600000000000000e-01 0.000000000000000e+00
 1.380000000000000e+00 9.200000000000000e-01 0.000000000000000e+00
 1.630000000000000e+00 1.530000000000000e+00 0.000000000000000e+00
 2.500000000000000e+00 2.500000000000000e+00 0.000000000000000e+00
 2.500000000000000e+00 2.500000000000000e+00 1.000000000000000e+01
 1.630000000000000e+00 1.530000000000000e+00 1.000000000000000e+01
 1.380000000000000e+00 9.200000000000000e-01 1.000000000000000e+01
 5.400000000000000e-01 3.600000000000000e-01 1.000000000000000e+01
 3.500000000000000e-01 2.500000000000000e-01 1.000000000000000e+01
 1.000000000000000e-01 2.500000000000000e-01 1.000000000000000e+01
 -7.000000000000000e-01 -7.000000000000000e-01 1.000000000000000e+01
 -7.000000000000000e-01 -7.000000000000000e-01 0.000000000000000e+00
 1.000000000000000e-01 2.500000000000000e-01 0.000000000000000e+00
 3.600000000000000e-01 5.400000000000000e-01 0.000000000000000e+00
 4.600000000000000e-01 4.600000000000000e-01 0.000000000000000e+00
 1.170000000000000e+00 1.170000000000000e+00 0.000000000000000e+00
 1.130000000000000e+00 1.530000000000000e+00 0.000000000000000e+00
 9.200000000000000e-01 1.380000000000000e+00 0.000000000000000e+00
 7.410272100000000e-01 1.472572100000000e+00 0.000000000000000e+00
 8.800000000000000e-01 1.530000000000000e+00 0.000000000000000e+00
 9.000000000000000e-01 2.500000000000000e+00 0.000000000000000e+00
 9.000000000000000e-01 2.500000000000000e+00 1.000000000000000e+01
 1.130000000000000e+00 1.530000000000000e+00 1.000000000000000e+01
 1.170000000000000e+00 1.170000000000000e+00 1.000000000000000e+01
 4.600000000000000e-01 4.600000000000000e-01 1.000000000000000e+01
 3.600000000000000e-01 5.400000000000000e-01 1.000000000000000e+01
 2.500000000000000e-01 6.000000000000000e-01 1.000000000000000e+01
 -2.000000000000000e-01 2.500000000000000e-01 1.000000000000000e+01
 -7.000000000000000e-01 2.500000000000000e-01 1.000000000000000e+01
 -7.000000000000000e-01 2.500000000000000e-01 0.000000000000000e+00
 -2.000000000000000e-01 2.500000000000000e-01 0.000000000000000e+00
 2.500000000000000e-01 6.000000000000000e-01 0.000000000000000e+00
 6.300000000000000e-01 1.530000000000000e+00 0.000000000000000e+00
 -7.000000000000000e-01 1.530000000000000e+00 0.000000000000000e+00
 -7.000000000000000e-01 1.530000000000000e+00 1.000000000000000e+01
 6.300000000000000e-01 1.530000000000000e+00 1.000000000000000e+01
 7.410272100000000e-01 1.472572100000000e+00 1.000000000000000e+01
 9.200000000000000e-01 1.380000000000000e+00 1.000000000000000e+01
 8.800000000000000e-01 1.530000000000000e+00 1.000000000000000e+01
 7.550000000000000e-01 1.530000000000000e+00 1.000000000000000e+01
 -7.000000000000000e-01 2.500000000000000e+00 1.000000000000000e+01
 -7.000000000000000e-01 2.500000000000000e+00 0.000000000000000e+00
 7.550000000000000e-01 1.530000000000000e+00 0.000000000000000e+00
 -7.000000000000000e-01 -7.000000000000000e-01 1.200000000000000e+01
 -7.000000000000000e-01 2.500000000000000e-01 1.200000000000000e+01
 -2.000000000000000e-01 2.500000000000000e-01 1.200000000000000e+01
 1.000000000000000e-01 2.500000000000000e-01 1.200000000000000e+01
 9.000000000000000e-01 -7.000000000000000e-01 1.200000000000000e+01
 3.500000000000000e-01 2.500000000000000e-01 1.200000000000000e+01
 6.000000000000000e-01 2.500000000000000e-01 1.200000000000000e+01
 1.600000000000000e+00 2.500000000000000e-01 1.200000000000000e+01
 2.500000000000000e+00 -7.000000000000000e-01 1.200000000000000e+01
 5.400000000000000e-01 3.600000000000000e-01 1.200000000000000e+01
 4.600000000000000e-01 4.600000000000000e-01 1.200000000000000e+01
 -7.000000000000000e-01 1.530000000000000e+00 1.200000000000000e+01
 2.500000000000000e-01 6.000000000000000e-01 1.200000000000000e+01
 3.600000000000000e-01 5.400000000000000e-01 1.200000000000000e+01
 -7.000000000000000e-01 2.500000000000000e+00 1.200000000000000e+01
 6.300000000000000e-01 1.530000000000000e+00 1.200000000000000e+01
 9.000000000000000e-01 2.500000000000000e+00 1.200000000000000e+01
 2.500000000000000e+00 2.500000000000000e+00 1.200000000000000e+01
 2.500000000000000e+00 1.530000000000000e+00 1.200000000000000e+01
 2.500000000000000e+00 2.500000000000000e-01 1.200000000000000e+01
 1.380000000000000e+00 9.200000000000000e-01 1.200000000000000e+01
 1.530000000000000e+00 6.300000000000000e-01 1.200000000000000e+01
 1.630000000000000e+00 1.530000000000000e+00 1.200000000000000e+01
 1.170000000000000e+00 1.170000000000000e+00 1.200000000000000e+01
 1.130000000000000e+00 1.530000000000000e+00 1.200000000000000e+01
 9.200000000000000e-01 1.380000000000000e+00 1.200000000000000e+01
 7.410272100000000e-01 1.472572100000000e+00 1.200000000000000e+01
 8.800000000000000e-01 1.530000000000000e+00 1.200000000000000e+01
 7.550000000000000e-01 1.530000000000000e+00 1.200000000000000e+01

  }

  Edges (284) {
 0 1
 1 2
 2 0
 2 3
 3 0
 4 0
 3 4
 5 4
 3 5
 6 5
 3 6
 2 6
 7 6
 2 7
 1 7
 1 8
 8 7
 9 8
 1 9
 0 9
 10 9
 0 10
 4 10
 11 10
 4 11
 12 11
 4 12
 5 12
 13 12
 5 13
 6 13
 6 14
 14 13
 14 15
 15 13
 16 13
 15 16
 16 12
 17 12
 16 17
 17 11
 17 18
 18 11
 18 19
 19 11
 19 10
 20 10
 19 20
 20 9
 20 21
 21 9
 21 8
 21 22
 22 8
 23 8
 22 23
 23 7
 24 7
 23 24
 24 25
 25 7
 25 6
 26 6
 25 26
 26 27
 27 6
 27 14
 27 28
 28 14
 28 29
 29 14
 29 15
 29 16
 29 30
 30 16
 30 17
 31 17
 30 31
 32 31
 30 32
 29 32
 28 32
 33 32
 28 33
 33 34
 34 32
 34 31
 35 31
 34 35
 35 17
 35 18
 35 36
 36 18
 36 19
 36 20
 36 37
 37 20
 37 38
 38 20
 38 21
 38 39
 39 21
 39 22
 39 23
 40 23
 39 40
 40 24
 41 24
 40 41
 41 42
 42 24
 42 25
 42 43
 43 25
 44 25
 43 44
 44 26
 44 45
 45 26
 45 27
 45 46
 46 27
 46 28
 46 33
 47 33
 46 47
 46 48
 48 47
 45 48
 44 48
 49 48
 44 49
 43 49
 42 49
 41 49
 50 49
 41 50
 41 51
 51 50
 40 51
 40 52
 52 51
 40 38
 38 52
 37 52
 53 52
 37 53
 53 51
 54 51
 53 54
 36 54
 53 36
 50 54
 36 50
 36 55
 55 50
 55 49
 55 48
 56 48
 55 56
 56 47
 35 47
 56 35
 55 35
 57 47
 35 57
 34 57
 33 57
 25 58
 58 59
 59 25
 60 59
 58 60
 61 60
 58 61
 58 62
 62 61
 62 63
 63 61
 62 64
 64 63
 62 65
 65 64
 66 65
 62 66
 62 7
 7 66
 2 66
 64 9
 8 64
 22 64
 67 22
 39 67
 67 64
 67 63
 68 63
 67 68
 39 68
 40 68
 62 25
 59 43
 69 43
 59 69
 60 69
 60 70
 70 69
 61 70
 61 71
 71 70
 63 71
 68 71
 40 71
 41 71
 69 49
 72 49
 69 72
 72 55
 50 73
 73 41
 73 70
 70 41
 73 69
 73 72
 73 74
 74 72
 74 36
 36 72
 74 75
 75 36
 75 19
 75 76
 76 19
 76 10
 76 77
 77 10
 77 0
 77 66
 66 0
 78 21
 9 78
 9 79
 79 78
 64 79
 65 79
 77 79
 65 77
 76 79
 80 79
 76 80
 80 78
 80 81
 81 78
 80 82
 82 81
 82 83
 83 81
 38 81
 83 38
 83 52
 21 81
 84 51
 52 84
 83 84
 85 84
 83 85
 82 85
 74 85
 82 74
 80 74
 80 75
 74 86
 86 85
 86 84
 86 73
 73 84
 50 84
 70 84
 71 84
 71 83
 68 83
 68 81
 68 78
 78 64
 78 67

  }

  Faces (200) {
 3 0 1 2
 3 -3 3 4
 3 5 -5 6
 3 7 -7 8
 3 9 -9 10
 3 -11 -4 11
 3 12 -12 13
 3 -14 -2 14
 3 -15 15 16
 3 17 -16 18
 3 -19 -1 19
 3 20 -20 21
 3 22 -22 -6
 3 23 -23 24
 3 25 -25 26
 3 -27 -8 27
 3 28 -28 29
 3 30 -30 -10
 3 31 32 -31
 3 33 34 -33
 3 35 -35 36
 3 37 -29 -36
 3 38 -38 39
 3 40 -26 -39
 3 41 42 -41
 3 43 44 -43
 3 -45 45 -24
 3 46 -46 47
 3 48 -21 -47
 3 49 50 -49
 3 51 -18 -51
 3 52 53 -52
 3 54 -54 55
 3 56 -17 -55
 3 57 -57 58
 3 59 60 -58
 3 -13 -61 61
 3 62 -62 63
 3 64 65 -63
 3 66 -32 -66
 3 67 68 -67
 3 69 70 -69
 3 -71 71 -34
 3 72 -37 -72
 3 73 74 -73
 3 75 -40 -75
 3 76 -76 77
 3 78 -78 79
 3 -80 -74 80
 3 81 -81 -70
 3 82 -82 83
 3 84 85 -83
 3 86 -79 -86
 3 87 -87 88
 3 89 -77 -88
 3 90 -42 -90
 3 91 92 -91
 3 -93 93 -44
 3 94 -48 -94
 3 95 96 -95
 3 97 98 -97
 3 -99 99 -50
 3 100 101 -100
 3 -102 102 -53
 3 103 -56 -103
 3 104 -104 105
 3 106 -59 -105
 3 107 -107 108
 3 109 110 -108
 3 111 -60 -111
 3 112 113 -112
 3 114 -114 115
 3 116 -64 -115
 3 117 118 -117
 3 119 -65 -119
 3 120 121 -120
 3 122 -68 -122
 3 123 -84 -123
 3 124 -124 125
 3 -126 126 127
 3 -127 -121 128
 3 -129 -118 129
 3 130 -130 131
 3 -132 -116 132
 3 -133 -113 133
 3 -134 -110 134
 3 135 -135 136
 3 -137 137 138
 3 -138 -109 139
 3 -140 140 141
 3 142 143 -141
 3 -106 -101 -143
 3 144 -144 -98
 3 145 -145 146
 3 -142 -146 147
 3 148 -148 149
 3 150 -150 151
 3 -152 -147 -96
 3 152 -151 153
 3 -139 -149 -153
 3 -154 154 155
 3 -156 156 -136
 3 -131 -157 157
 3 158 -158 159
 3 -128 -159 160
 3 161 -161 162
 3 -163 -160 163
 3 -164 -155 -92
 3 164 -162 165
 3 -166 -89 166
 3 167 -167 -85
 3 -165 -168 -125
 3 168 169 170
 3 171 -170 172
 3 173 -173 174
 3 -175 175 176
 3 -177 177 178
 3 -178 179 180
 3 -180 181 182
 3 183 -182 184
 3 -185 185 186
 3 -187 -14 187
 3 188 17 189
 3 -190 -54 190
 3 191 -103 192
 3 -191 -192 193
 3 -181 -194 194
 3 195 -195 196
 3 -197 -193 197
 3 198 -198 105
 3 199 60 -186
 3 -169 -200 -176
 3 200 113 -171
 3 201 -201 202
 3 203 -203 -172
 3 -204 204 205
 3 -205 -174 206
 3 -207 207 208
 3 -208 -179 209
 3 -210 -196 210
 3 -211 -199 211
 3 212 -212 108
 3 213 -133 -202
 3 214 -214 215
 3 216 156 -215
 3 217 218 136
 3 219 220 -219
 3 -221 -209 -213
 3 221 -206 -220
 3 222 -216 -222
 3 223 224 -223
 3 225 226 -225
 3 -226 227 228
 3 -229 229 -94
 3 230 231 -230
 3 232 -46 -232
 3 233 234 -233
 3 -235 235 21
 3 236 237 -236
 3 -238 -188 2
 3 238 50 239
 3 -240 240 241
 3 -241 -189 242
 3 -243 -183 243
 3 244 -244 245
 3 -246 -184 -237
 3 246 -245 -234
 3 247 -247 248
 3 249 -242 -248
 3 250 251 -250
 3 252 253 -251
 3 254 255 -254
 3 256 -256 257
 3 258 -144 -258
 3 -257 99 259
 3 -260 -239 -252
 3 260 -142 261
 3 -262 -259 262
 3 263 -263 264
 3 265 -265 -255
 3 266 -266 267
 3 -268 -253 268
 3 -269 269 -228
 3 -270 -249 -231
 3 270 271 -267
 3 272 -264 -272
 3 273 274 -273
 3 -218 275 -275
 3 -276 -139 -261
 3 -227 154 -217
 3 -271 -224 -274
 3 -275 219 276
 3 277 -277 -209
 3 262 -278 278
 3 279 -279 -211
 3 280 -256 -280
 3 -252 -281 281
 3 282 242 241
 3 193 -283 283
 3 -284 -282 -197

  }

  Locations (200) {
ffffefefff
ffffffffff
ffefeeefff
fffffffeef
efefefffff
ffffffffff
ffffffffff
feeeeeeeee
eeeeffffff
ffffffffff
ffffffffff
ffffeeeeee
eeffffeeff
eeffffffff
ffffffffff
ffffffeeee
fffeeeeeee
eeffffffee
eeeeeeefff
ffffeeffee

  }

  Elements (3) {
 10 112 0 1 2 3 4 5 6 7
 8 9 10 11 12 13 14 15 16 17
 18 19 20 21 22 23 24 25 26 27
 28 29 30 31 32 33 34 35 36 37
 38 39 40 41 42 43 44 45 46 47
 48 49 50 51 52 53 54 55 56 57
 58 59 60 61 62 63 64 65 66 67
 68 69 70 71 72 73 74 75 76 77
 78 79 80 81 82 83 84 85 86 87
 88 89 90 91 92 93 94 95 96 97
 98 99 100 101 102 103 104 105 106 107
 108 109 110 111
 10 116 112 113 114 115 116 117 118 119
 120 121 -8 -9 -10 122 123 -33 -65 124
 125 126 127 128 129 -66 -67 -35 -34 -36
 130 131 -70 -71 132 133 134 135 136 137
 138 139 140 141 -68 -69 -86 -85 142 143
 144 -102 -87 145 146 147 148 149 150 151
 152 153 154 155 156 157 158 159 -1 -11
 -12 -29 -30 160 161 162 163 164 165 166
 167 168 169 170 171 172 173 -93 -61 -62
 174 175 -60 -59 -28 -98 -94 -95 176 177
 178 179 180 181 182 183 184 185 186 187
 188 -100 -96 -97 -99 -101 189 190
 10 40 -88 -189 -188 -146 -147 191 192 -148
 -142 -89 -90 -177 -178 193 194 -141 -130 -92
 -91 -174 -173 195 196 -176 -161 -31 -123 -163
 197 -162 198 199 -129 -125 -64 -63 -175 -32
 -124 -126

  }

  Region ("Bulk") {
    material = Silicon
    Elements (1) {
 0
    }
  }

  Region ("M_NOTSN") {
    material = Resist
    Elements (1) {
 1
    }
  }

  Region ("Gas") {
    material = Gas
    Elements (1) {
 2
    }
  }

}
