DF-ISE text

Info {
version     =  1.1
type        = boundary
dimension   =  3
nb_vertices =  228
nb_edges    =  803
nb_faces    =  584
nb_elements =  8
nb_regions  =  8
regions     = [ "Ox1" "Cu1" "Ta_Barrier" "Ta_Barrier2" "Ox2_lump_1" "Copper_pattern0" "Ox2_lump_2" "Oxide_pattern0" ]
materials     = [ Lowk Copper Tantalum Tantalum Lowk Copper Lowk Lowk ]
 }
Data {
CoordSystem {
translate = [  0  0  0 ]
transform = [  1  0  0  0  1  0  0  0  1 ]
 }
Vertices (  228) {
 -1 0.1000000000000227 0
 -1 0.1000000000000227 -0.2999999999997272
 -1 -0.09999999999990905 0
 -1 -0.09999999999990905 -0.2999999999997272
 0.1000000000000227 -0.09999999999990905 0
 1 -0.09999999999990905 -0.2999999999997272
 1 -0.09999999999990905 0.180000000000291
 0.1000000000000227 -0.09999999999990905 0.180000000000291
 0.1000000000000227 0.1000000000000227 0.180000000000291
 1 0.1000000000000227 0.180000000000291
 0.1000000000000227 0.1000000000000227 0
 1 0.1000000000000227 -0.2999999999997272
 0.07999997900003564 0.1000000000000227 0.09001276800017877
 0.07999999800017576 0.1000000000000227 0.02000000000001023
 -0.04999999999989768 0.1000000000000227 0.180000000000291
 -1 0.1000000000000227 0.02000000000001023
 -1 0.1000000000000227 0.180000000000291
 0.0801144160000149 0.1000000000000227 0.1354525100000501
 0.08027077500014457 0.1000000000000227 0.1593036600002051
 0.08556102600005033 0.1000000000000227 0.1742220300000099
 0.08760996900014106 0.1000000000000227 0.180000000000291
 0.08260946100017463 -0.09999999999990905 0.1754238700002588
 -0.04999999999989768 -0.09999999999990905 0.180000000000291
 0.08361640700013595 -0.09999999999990905 0.180000000000291
 0.08008824800003822 -0.09999999999990905 0.1590289900002517
 0.0799999990000515 -0.09999999999990905 0.1350401100003182
 -1 -0.09999999999990905 0.180000000000291
 -1 -0.09999999999990905 0.02000000000001023
 0.08000000000004093 -0.09999999999990905 0.09000000000003183
 0.08000000000004093 -0.09999999999990905 0.02000000000001023
 0.08210397400000602 0.04648838900010333 0.1758727800001907
 0.08320601600019017 0.0520907400000965 0.180000000000291
 0.08430386100019405 0.0446623070000669 0.180000000000291
 0.08163449900018804 0.06901469200022348 0.1684420200001568
 0.08390047100010634 0.06704329900014727 0.180000000000291
 0.08678114700001061 0.08631688700018003 0.180000000000291
 0.08467978800001674 -0.08494365299998208 0.180000000000291
 0.08494718700012527 -0.08199763499999335 0.180000000000291
 0.08010962600008043 -0.0747497199999998 0.1598199800000657
 0.08493801800011624 -0.08060607299989897 0.180000000000291
 0.08117114100014078 -0.04640815399983467 0.1515964000000167
 0.08133703200019227 -0.02787898599999039 0.1611968900001557
 0.08236552100015615 -0.04290924999997969 0.1681491400006507
 0.08215413700020235 -0.02478853299996331 0.1677573500001017
 0.08010369800012995 -0.00985512839997682 0.1528599500002201
 0.0833042370001067 -0.02460086499996805 0.1758165500000359
 0.08746452000002591 -0.02990696299994511 0.1798869800002194
 0.08751361700012694 -0.0297817679999639 0.180000000000291
 0.08750290100022085 -0.0300129349999736 0.180000000000291
 0.0858139450000408 -0.02280774599995539 0.180000000000291
 0.08189527600006841 -0.00259789079999706 0.167277550000108
 0.08381641400001172 -0.01461154499996553 0.180000000000291
 0.08019203000003472 0.04078622600002291 0.1580363000002762
 0.08081724500016207 0.05950939800004562 0.1517521700000088
 0.07999558200015144 -0.0499651789998552 0.1352094600001692
 0.08373826300010023 -0.005498239499992508 0.180000000000291
 0.08310484800017548 0.02175647000004233 0.1766513400000349
 0.08479032700017797 0.02441323300001841 0.180000000000291
 0.08702118500013967 0.02059567600002765 0.180000000000291
 0.08366263200014146 0.008009708100018997 0.180000000000291
 0.08015445700016244 0.0181924580000441 0.1558225400001447
 0.08687987700000122 -0.04345371199997317 0.180000000000291
 0.08579597500022373 -0.06279071599999497 0.180000000000291
 0.08002865900004963 0.002799047000010546 0.1399960600001577
 0.07999999100002242 0.05000410300010572 0.1350623300002098
 0.08577796800011583 -0.05747320299997227 0.180000000000291
 0.08004907400004413 -0.08748927399994955 0.1465647800002898
 0.0799999990000515 5.559085200002901e-08 0.09000194800012196
 0.08000000000004093 0.01683991700005549 0.02000000000001023
 0.08000000000004093 0.01683991600006607 0.0525779620000435
 0.08000000000004093 -0.05842011199985109 0.1162886400003345
 -0.03206324264073146 -0.08475888184614178 0.4700000000011642
 -0.03219649944600178 -0.09999999999990905 0.4700000000011642
 -0.04402662863259366 -0.09999999999990905 0.4700000000011642
 -0.04726360483192593 -0.09999999999990905 0.4700000000011642
 -0.04864359972361854 -0.09999999999990905 0.4700000000011642
 -0.04932204010333407 -0.09999999999990905 0.4700000000011642
 -0.04999999999989768 -0.09999999999990905 0.4700000000011642
 -0.03206501146888741 -0.07731457776196748 0.4700000000011642
 -0.03192206787440455 -0.06299124035490422 0.4700000000011642
 -0.03192203635921942 -0.0564634519748779 0.4700000000011642
 -0.03211996211160795 -0.03910729206415908 0.4700000000011642
 -0.03153797505711964 0.06272232730850646 0.4700000000011642
 -0.03319613536643828 0.05528119791199515 0.4700000000011642
 -0.04999999999989768 0.09661016949189616 0.4700000000011642
 -0.03286358004294243 0.03368351092467492 0.4700000000011642
 -0.03230304888910496 0.04985721862368564 0.4700000000011642
 -0.03223461345896794 -0.03012809691784923 0.4700000000011642
 -0.03294932517383131 0.02547972616824268 0.4700000000011642
 -0.03247582971118845 0.003590272252523619 0.4700000000011642
 -0.03251141745465702 0.017339141610762 0.4700000000011642
 -0.03228481388134696 0.07910345789150597 0.4700000000011642
 -0.03255256037584786 0.096132355743066 0.4700000000011642
 -0.04403053841014071 0.1000000000000227 0.4700000000011642
 -0.03243663154205478 0.1000000000000227 0.4700000000011642
 -0.04725003149189888 0.1000000000000227 0.4700000000011642
 -0.03247926000142343 -0.01189583945252082 0.4700000000011642
 -0.04863849491158589 0.1000000000000227 0.4700000000011642
 -0.04932127776498874 0.1000000000000227 0.4700000000011642
 -0.04999999999989768 0.1000000000000227 0.4700000000011642
 -0.03303256562213619 0.02880755843287375 0.4700000000011642
 -0.0302905849999604 -0.07502093999994486 0.4584606300004452
 -0.03029112399991618 -0.09999999999990905 0.4585027200005243
 -0.03010009699994498 -0.09999999999990905 0.4386384700005692
 -0.02999999999994429 -0.09999999999990905 0.3274986500000523
 -0.02999999999994429 -0.09999999999990905 0.4012754500004121
 -0.03017757799997867 0.1000000000000227 0.4389588200006074
 -0.03015221299995119 0.1000000000000227 0.4021108600009029
 -0.03010147399996299 0.1000000000000227 0.3284118600004149
 -0.03019536799996558 0.1000000000000227 0.4584117100012008
 -0.03015447599997856 0.07935035200000584 0.4550000300005195
 0.1600000000003092 0.1000000000000227 0.2650000000003274
 1 0.1000000000000227 0.2650000000003274
 0.5747421100013526 0.1000000000000227 0.2850000000003092
 0.1141170900000361 0.1000000000000227 0.2346727100002681
 0.09779510500004562 0.1000000000000227 0.214949370000113
 0.1336664900002233 0.1000000000000227 0.2617520100002366
 0.1510091700001794 0.1000000000000227 0.2826035500002035
 0.1722929400000339 0.1000000000000227 0.2847221800002444
 -0.03000588299991591 0.1000000000000227 0.2000002400000085
 -0.03001698499994632 -0.09999999999990905 0.2001075300004231
 0.02695923500004938 -0.09999999999990905 0.2000885500001459
 0.08550801300020794 -0.09999999999990905 0.2001579300003868
 0.1137424000000919 -0.09999999999990905 0.2341608000003816
 0.1600000000003092 -0.09999999999990905 0.2650000000003274
 0.1387887000003047 -0.09999999999990905 0.2685407100002521
 0.1287983900003837 -0.09999999999990905 0.2554795700002614
 1 -0.09999999999990905 0.2650000000003274
 0.5800000000017462 -0.09999999999990905 0.2850000000003092
 0.1596100800006752 -0.09999999999990905 0.2836714600002779
 0.1850194800001645 -0.09999999999990905 0.2848004200000105
 0.2118862200004514 -0.09999999999990905 0.2848819400001048
 0.2647551000000021 -0.09999999999990905 0.2849515600005361
 0.3699987600002714 -0.09999999999990905 0.2850000000003092
 1 0.1000000000000227 0.2850000000003092
 0.1878849400002309 0.1000000000000227 0.2850011000004997
 0.2147010500000306 0.1000000000000227 0.2850000000003092
 0.2650000000003274 0.1000000000000227 0.2850000000003092
 0.3700000000003456 0.1000000000000227 0.2850000000003092
 0.08532905600009144 0.1000000000000227 0.2000226800000746
 1 -0.09999999999990905 0.2850000000003092
 -0.03022015099992359 0.05454573500014703 0.463380820000566
 -0.03199889799998346 0.02760819100004142 0.4662939300005746
 -0.03016915099996709 -0.00815114919998905 0.4543515500008652
 -0.03028644499994471 -0.0468798359999596 0.4584323100007168
 0.1490738400000282 -0.06026024399994867 0.2751254500003597
 0.1606455300000107 -0.04703991899998528 0.2823411100002886
 0.1548916400006419 -0.07774425299999166 0.2826264100008302
 0.1431437900005221 -0.04773927399992317 0.2684029800002463
 -0.03010065899999859 -0.008181340299998396 0.4385979600001519
 -0.0301008569999226 0.02501702900005398 0.4386572200000955
 -0.02999998999996478 1.365797900000632e-05 0.4012703800003692
 0.1397203300005003 0.0565492240000367 0.2674848600004225
 0.1273184800002127 0.05507915800006913 0.2535886800001208
 0.142410990000144 0.0005273149500002461 0.2677270800008955
 0.2074232600000414 0.01477150300003416 0.2850002000000131
 0.2073583500000495 0.038749411000083 0.2850003700000343
 0.2552957800007789 0.02890974200005303 0.2850000000003092
 0.1924419000001762 0.01479096500001731 0.2846317000003182
 0.1787655300004189 -0.007058294599993076 0.2842943100004049
 0.1751037100000303 0.02225680100005434 0.2837279500004115
 0.1821656200002053 0.04363223300009622 0.2841959700008374
 0.157405060000201 0.04695641700004671 0.2821866000003865
 0.1814217400003599 0.05689883400009421 0.2842030800002249
 0.1537989500000094 0.001380897900002509 0.2813114400000813
 0.1281653300000016 -0.06437218599990047 0.2549268500006292
 0.1187574300000733 -0.05543167399997628 0.2421890000002804
 0.1379826700001558 -0.07397682599992095 0.2682212400000026
 0.1687587800001893 -0.07964961699997275 0.284457580000435
 0.18298582000034 -0.08644026399997529 0.2848811200001364
 0.1831218900006206 -0.05943963399994345 0.2849543700003778
 0.08549630400011665 0.06411980500013215 0.2000007900001037
 0.08539533200007554 -0.02688532999997051 0.2000108000002001
 0.09278072300003259 0.06430685300017558 0.2088663400002133
 0.1049740900000415 0.07512616000019534 0.2251751000005697
 0.113936480000234 -1.122975199999154e-05 0.2344289600000593
 0.1030975600000374 -0.0770871149999266 0.2194931000001361
 0.09786560000009104 -0.06732111199994506 0.2142657600002167
 0.1690412800001013 0.07802739300007033 0.2845632300000034
 0.01673409100004619 -0.06466861299986704 0.2000006600001143
 0.02574106800003051 -0.08309356999995998 0.2016303000002608
 0.08838680300004853 -0.0634495329999254 0.2023924300001454
 0.09826565600008053 -0.04115590799989377 0.2146231100000477
 0.1300525700003163 0.0009292395000013443 0.2572191400004158
 0.145227560000194 0.08050537900010113 0.2772369100002834
 -0.03010006299996348 -0.05000650399995266 0.438632960000632
 0.2073971300001176 -0.07272621999993589 0.2849515100001554
 -0.03010025799997607 0.04999360900001193 0.4385862400008591
 -0.03013618999992218 0.06712169600007201 0.4270030100005897
 0.2075412100004996 -0.03550843899989786 0.2850004500005525
 0.276760170000216 0.06810347600014666 0.2850000000003092
 0.2593669500006399 0.0763412020000942 0.2850000000003092
 -0.03006940299997041 0.03421518500010734 0.3782038400008787
 0.205586680000124 0.06573779600000762 0.2850007500001084
 0.2126379600001655 0.07493443600003502 0.2850000000003092
 0.2552921500000593 -0.0453881519999868 0.2850000000003092
 0.5747421100013526 0.06624937400010822 0.2850000000003092
 0.2652761200006353 0.04986851500001421 0.2850000000003092
 -0.0299999969999476 9.171180300013293e-06 0.3275033600007191
 0.3700000000003456 0.05000000000006821 0.2850000000003092
 0.5800000000017462 0 0.2850000000003092
 0.3505915000000641 0.0092421442000159 0.2850000000003092
 -0.0661016949139821 -0.09999999999990905 0.4700000000011642
 -0.9838983050858587 0.1000000000000227 0.4700000000011642
 -1 -0.09661016949166878 0.4700000000011642
 -1 -0.09999999999990905 0.4700000000011642
 -1 0.1000000000000227 0.4700000000011642
 -0.02865403097879948 -0.09999999999990905 0.4700000000011642
 -0.02814176960629311 -0.09999999999990905 0.4700000000011642
 -0.01243943663506286 -0.09999999999990905 0.4700000000011642
 -0.007487386180500266 -0.09999999999990905 0.4700000000011642
 0.002363730571985911 -0.09999999999990905 0.4700000000011642
 0.6508433734952632 0.1000000000000227 0.4700000000011642
 0.6508426862656052 -0.09999999999990905 0.4700000000011642
 1 0.01084337349392683 0.4700000000011642
 0.7643149043378799 0.1000000000000227 0.4700000000011642
 0.7672289156635088 -0.09999999999990905 0.4700000000011642
 1 -0.09999999999990905 0.4700000000011642
 1 0.1000000000000227 0.4700000000011642
 0.001349891040888451 0.1000000000000227 0.4700000000011642
 -0.008382255726431254 0.1000000000000227 0.4700000000011642
 -0.01304432014210022 0.1000000000000227 0.4700000000011642
 -0.02855961069803925 0.1000000000000227 0.4700000000011642
 -0.02905148691874615 0.1000000000000227 0.4700000000011642
 -1 -0.09999999999990905 0.8000000000001819
 1 -0.09999999999990905 0.8000000000001819
 1 0.1000000000000227 0.8000000000001819
 -1 0.1000000000000227 0.8000000000001819
 }
Edges (  803) {
 0 1
 2 1
 0 2
 1 3
 2 3
 4 3
 4 2
 3 5
 4 5
 6 5
 6 4
 6 7
 7 4
 8 9
 9 10
 8 10
 9 11
 10 11
 1 11
 10 1
 0 10
 9 5
 5 11
 9 6
 3 11
 8 6
 8 7
 0 4
 10 4
 7 10
 12 13
 13 14
 12 14
 13 15
 14 15
 15 16
 14 16
 14 17
 12 17
 17 18
 14 18
 14 19
 18 19
 14 20
 19 20
 21 22
 21 23
 22 23
 21 24
 22 24
 22 25
 24 25
 22 26
 26 27
 22 27
 22 28
 25 28
 22 29
 28 29
 27 29
 15 26
 15 27
 16 26
 14 26
 14 22
 30 31
 30 32
 31 32
 31 33
 31 34
 33 34
 30 33
 33 35
 34 35
 19 35
 20 35
 18 35
 21 36
 23 36
 24 36
 36 37
 24 37
 37 38
 37 39
 38 39
 24 38
 40 41
 40 42
 41 42
 42 43
 41 43
 43 44
 41 44
 42 45
 43 45
 46 47
 46 48
 47 48
 47 49
 45 49
 45 47
 45 46
 18 33
 50 51
 43 50
 43 51
 42 46
 52 53
 33 52
 33 53
 17 33
 17 53
 30 52
 40 44
 44 54
 40 54
 38 54
 38 40
 51 55
 50 55
 45 51
 56 57
 56 58
 57 58
 56 59
 58 59
 30 56
 52 56
 52 60
 56 60
 50 59
 55 59
 50 56
 50 60
 46 61
 48 61
 42 61
 38 62
 39 62
 44 63
 44 60
 60 63
 32 57
 30 57
 60 64
 63 64
 44 50
 62 65
 38 65
 38 42
 42 65
 49 51
 24 66
 38 66
 54 66
 63 67
 54 67
 54 63
 61 65
 53 64
 52 64
 29 68
 29 69
 68 69
 17 64
 25 66
 12 64
 12 69
 64 69
 64 67
 28 70
 25 70
 25 54
 54 70
 67 70
 13 69
 13 68
 29 67
 67 69
 28 67
 27 68
 15 68
 57 59
 14 35
 14 34
 14 31
 14 57
 14 32
 14 59
 22 55
 14 55
 36 39
 22 62
 22 39
 22 36
 48 49
 49 61
 51 61
 22 65
 22 61
 22 51
 15 0
 13 0
 13 10
 12 10
 8 12
 8 20
 8 19
 8 18
 8 17
 28 4
 29 4
 7 24
 7 21
 7 23
 7 25
 7 28
 29 2
 27 2
 27 0
 8 58
 32 58
 8 32
 8 35
 7 36
 7 37
 49 55
 7 39
 7 62
 7 65
 7 61
 7 48
 7 47
 7 58
 47 58
 49 58
 55 58
 32 34
 8 34
 71 72
 71 73
 72 73
 71 74
 74 73
 71 75
 75 74
 71 76
 76 75
 71 77
 77 76
 71 78
 78 77
 79 78
 79 77
 80 79
 80 77
 81 80
 81 77
 82 83
 82 84
 83 84
 83 85
 85 84
 83 86
 86 85
 87 81
 87 77
 88 89
 90 89
 88 90
 91 82
 91 84
 92 93
 92 84
 93 84
 94 92
 94 93
 84 95
 93 95
 92 91
 96 87
 96 77
 95 97
 84 97
 84 98
 97 98
 99 98
 84 99
 88 84
 84 89
 77 89
 89 96
 77 84
 85 100
 100 84
 100 88
 78 101
 79 101
 71 101
 71 102
 102 101
 72 102
 102 73
 74 102
 76 102
 75 102
 77 103
 76 103
 102 103
 77 104
 77 105
 105 104
 105 103
 22 77
 104 22
 22 84
 14 99
 14 84
 106 99
 99 107
 107 106
 99 108
 108 107
 109 98
 106 98
 109 106
 109 97
 95 109
 109 93
 94 109
 92 109
 92 110
 109 110
 111 112
 113 111
 113 112
 114 115
 114 8
 115 8
 114 111
 8 111
 116 114
 116 111
 117 111
 117 118
 118 111
 119 14
 119 20
 108 14
 108 119
 120 22
 104 120
 121 122
 121 23
 122 23
 123 124
 123 7
 124 7
 125 124
 125 126
 126 124
 127 124
 128 127
 128 124
 129 124
 129 125
 130 124
 130 129
 131 124
 130 131
 132 124
 131 132
 133 124
 132 133
 134 112
 134 127
 112 127
 135 111
 135 136
 136 111
 137 136
 137 111
 138 137
 138 111
 113 138
 134 113
 115 139
 139 8
 139 20
 117 116
 139 119
 121 120
 121 22
 122 7
 123 122
 140 127
 128 140
 123 126
 128 133
 134 140
 85 141
 142 141
 85 142
 86 141
 83 141
 89 143
 90 143
 142 143
 90 142
 88 142
 81 144
 87 144
 143 144
 87 143
 80 144
 145 146
 145 147
 146 147
 145 148
 146 148
 149 150
 149 151
 150 151
 143 149
 143 150
 142 150
 96 143
 152 153
 116 152
 116 153
 152 154
 153 154
 155 156
 155 157
 156 157
 155 158
 156 158
 158 159
 155 159
 158 160
 156 160
 160 161
 156 161
 161 162
 160 162
 162 163
 161 163
 160 164
 162 164
 159 160
 159 164
 91 110
 165 166
 148 165
 148 166
 126 165
 126 166
 129 147
 147 167
 129 167
 147 168
 129 168
 129 169
 130 169
 168 170
 168 169
 169 170
 146 168
 146 170
 125 167
 171 172
 119 171
 119 172
 171 173
 172 173
 139 174
 139 173
 173 174
 115 174
 139 171
 173 175
 172 175
 174 175
 166 176
 123 176
 123 166
 176 177
 166 177
 118 178
 117 178
 153 174
 153 175
 114 174
 114 153
 120 179
 119 179
 119 120
 179 180
 120 180
 177 181
 177 182
 181 182
 122 177
 122 181
 100 142
 172 180
 172 179
 121 180
 122 180
 172 181
 172 182
 166 182
 122 176
 175 182
 166 175
 82 141
 166 183
 175 183
 154 183
 154 166
 148 154
 148 167
 165 167
 152 184
 116 184
 162 184
 152 162
 178 184
 162 178
 154 164
 154 162
 153 183
 131 169
 145 167
 144 185
 101 144
 101 185
 143 185
 169 186
 131 186
 170 186
 117 184
 132 186
 126 167
 103 101
 103 185
 79 144
 106 110
 110 141
 141 187
 110 187
 106 188
 110 188
 159 170
 170 189
 159 189
 146 159
 82 110
 107 188
 187 188
 150 187
 151 187
 142 187
 186 189
 163 178
 135 178
 135 163
 190 191
 137 190
 137 191
 107 192
 188 192
 187 192
 149 185
 135 193
 163 193
 135 194
 193 194
 186 195
 132 195
 189 195
 161 193
 135 118
 133 195
 146 164
 146 154
 105 185
 113 196
 138 196
 190 197
 191 197
 108 192
 151 192
 108 198
 192 198
 151 185
 105 151
 196 199
 138 199
 196 200
 199 200
 157 195
 155 195
 155 189
 157 197
 156 197
 136 194
 156 193
 156 194
 191 194
 136 191
 195 201
 133 201
 157 201
 194 197
 197 201
 190 199
 190 201
 199 201
 138 190
 133 200
 200 201
 151 198
 105 198
 128 200
 104 198
 134 196
 120 198
 119 198
 140 200
 134 200
 180 181
 111 127
 111 124
 8 124
 84 202
 77 202
 202 203
 203 204
 204 202
 205 202
 204 205
 99 203
 84 203
 203 206
 206 204
 26 205
 26 202
 26 204
 16 204
 16 206
 16 203
 14 203
 22 202
 72 207
 71 207
 207 208
 71 208
 71 209
 208 209
 209 78
 210 78
 209 210
 211 79
 79 210
 210 211
 80 211
 212 213
 212 211
 211 213
 214 215
 215 216
 216 214
 216 217
 217 214
 218 215
 214 218
 213 216
 213 215
 88 219
 85 219
 85 88
 89 211
 219 211
 219 89
 212 219
 81 211
 96 211
 87 211
 220 221
 221 91
 220 91
 221 92
 221 222
 222 92
 223 92
 222 223
 223 94
 219 82
 82 220
 219 220
 90 219
 82 86
 86 219
 215 212
 211 105
 105 129
 211 129
 210 103
 103 209
 218 134
 215 134
 215 113
 108 117
 117 107
 108 114
 108 116
 223 109
 109 221
 109 222
 115 119
 106 221
 219 136
 219 137
 219 138
 105 125
 207 102
 103 211
 123 121
 123 104
 121 104
 216 140
 217 140
 216 128
 214 134
 106 220
 108 115
 117 219
 219 118
 106 219
 107 219
 212 138
 212 113
 125 104
 104 126
 135 219
 102 208
 102 209
 211 130
 131 211
 211 132
 211 133
 213 133
 213 128
 214 140
 111 9
 9 112
 112 6
 6 127
 6 124
 205 224
 202 224
 214 225
 217 225
 215 226
 218 226
 204 224
 225 226
 226 227
 225 227
 216 225
 213 225
 211 225
 211 224
 224 225
 210 224
 209 224
 208 224
 207 224
 72 224
 73 224
 74 224
 75 224
 76 224
 77 224
 214 226
 206 227
 203 227
 212 226
 219 226
 219 227
 220 227
 221 227
 222 227
 223 227
 94 227
 93 227
 95 227
 97 227
 98 227
 99 227
 204 227
 227 224
 }
Faces (  584) {
 3 0 -2 -3
 3 3 -5 1
 3 4 -6 6
 3 7 -9 5
 3 -10 10 8
 3 11 12 -11
 3 13 14 -16
 3 16 -18 -15
 3 -19 -20 17
 3 -1 20 19
 3 -17 21 22
 3 23 9 -22
 3 -8 24 -23
 3 -4 18 -25
 3 -14 25 -24
 3 26 -12 -26
 3 -7 -28 2
 3 -29 -21 27
 3 15 -30 -27
 3 28 -13 29
 3 30 31 -33
 3 33 -35 -32
 3 35 -37 34
 3 32 37 -39
 3 -40 -38 40
 3 -41 41 -43
 3 43 -45 -42
 3 -46 46 -48
 3 -49 45 49
 3 -50 50 -52
 3 52 53 -55
 3 55 -57 -51
 3 57 -59 -56
 3 54 59 -58
 3 -54 -61 61
 3 -63 -36 60
 3 -37 63 -63
 3 64 52 -64
 3 -66 66 -68
 3 -69 69 -71
 3 -72 65 68
 3 -73 70 73
 3 74 -76 -45
 3 -75 -43 76
 3 -78 46 78
 3 79 80 -82
 3 -49 77 -80
 3 -83 83 -85
 3 -86 81 82
 3 -87 87 -89
 3 88 89 -91
 3 91 -93 90
 3 -90 93 -95
 3 -96 96 -98
 3 98 -100 100
 3 -101 101 95
 3 -77 102 72
 3 -104 -105 105
 3 -94 106 -102
 3 -108 -109 109
 3 -110 -111 111
 3 108 -113 71
 3 113 114 -116
 3 115 -117 117
 3 103 118 -120
 3 120 -106 94
 3 -122 122 -124
 3 -123 124 -126
 3 -127 112 127
 3 -128 128 -130
 3 -131 119 131
 3 -125 -133 130
 3 132 129 -134
 3 134 -136 -97
 3 -107 136 -135
 3 -138 84 138
 3 -140 140 141
 3 -143 -67 143
 3 -144 126 121
 3 144 -146 -142
 3 -141 146 133
 3 137 147 -149
 3 -150 148 -151
 3 -121 99 151
 3 104 -147 -92
 3 92 -114 86
 3 -153 85 153
 3 -154 116 154
 3 155 -157 157
 3 -158 -115 139
 3 -137 150 -159
 3 107 159 -161
 3 160 -145 -129
 3 -88 -118 149
 3 -162 162 -164
 3 -40 110 -103
 3 -112 164 -160
 3 -166 -52 152
 3 -39 166 -165
 3 167 -169 -167
 3 169 -156 145
 3 -171 -57 171
 3 -172 172 173
 3 156 174 -174
 3 165 -155 -173
 3 -176 176 163
 3 -163 177 178
 3 170 -175 -180
 3 -179 -170 168
 3 -178 -59 179
 3 30 175 -168
 3 59 161 -181
 3 180 -182 61
 3 -177 33 181
 3 125 -183 123
 3 43 75 -184
 3 -185 183 -74
 3 -70 -186 184
 3 142 -187 187
 3 67 -188 185
 3 -189 186 182
 3 -190 -65 190
 3 -132 -191 188
 3 -81 191 -84
 3 192 -139 -194
 3 -195 193 -192
 3 -79 -48 194
 3 -99 97 195
 3 -197 -196 135
 3 -198 -152 196
 3 158 -199 199
 3 -200 200 197
 3 198 -148 -193
 3 -119 -201 189
 3 -202 -34 202
 3 -203 203 -21
 3 -31 204 -204
 3 -206 15 -205
 3 44 -207 207
 3 -208 208 42
 3 209 39 -209
 3 38 -210 205
 3 -211 58 211
 3 -213 213 48
 3 214 -47 -214
 3 215 56 -217
 3 51 -216 212
 3 216 210 -13
 3 -212 217 -7
 3 -60 218 -218
 3 201 -220 -62
 3 2 -219 219
 3 220 -222 -223
 3 -207 223 -76
 3 214 78 -225
 3 224 80 -226
 3 118 -227 151
 3 225 83 -228
 3 -229 227 138
 3 228 147 -230
 3 229 -159 -231
 3 -232 230 -136
 3 -98 -233 231
 3 -221 26 233
 3 234 -234 232
 3 -235 98 235
 3 236 -236 226
 3 131 -126 -237
 3 69 -238 -68
 3 238 73 -224
 3 222 237 -239
 3 -124 -143 221
 3 -240 240 -242
 3 -241 242 243
 3 244 245 -243
 3 246 247 -245
 3 248 249 -247
 3 -251 248 -252
 3 252 251 -254
 3 254 253 -256
 3 256 255 -258
 3 -259 259 -261
 3 -262 260 -263
 3 -264 261 -265
 3 265 257 -267
 3 267 -269 -270
 3 -271 271 -260
 3 -273 273 -275
 3 -273 -276 276
 3 274 277 -279
 3 273 -272 -280
 3 280 266 -282
 3 277 282 -284
 3 -285 283 285
 3 -287 -288 284
 3 -268 288 289
 3 281 290 291
 3 292 289 -291
 3 -294 262 -295
 3 294 -289 -296
 3 252 296 -298
 3 -251 298 -297
 3 -299 299 300
 3 239 301 -300
 3 241 -303 -302
 3 303 302 -244
 3 -248 304 -306
 3 305 -304 -246
 3 -250 306 -308
 3 304 308 -308
 3 -310 310 311
 3 306 -313 -311
 3 313 309 314
 3 292 -316 313
 3 -317 317 287
 3 -318 64 315
 3 318 319 320
 3 -322 319 -323
 3 323 -325 -326
 3 -327 323 -286
 3 327 328 278
 3 326 -283 327
 3 -277 329 328
 3 275 330 -330
 3 -331 331 -333
 3 -334 -335 335
 3 -337 337 -339
 3 -338 339 -341
 3 -340 -342 342
 3 -344 344 345
 3 -347 347 -44
 3 -325 318 286
 3 316 321 348
 3 349 346 -349
 3 -351 -352 314
 3 -353 353 -355
 3 -356 356 -358
 3 -359 359 360
 3 -362 -363 363
 3 -365 365 358
 3 -367 367 364
 3 -369 -370 366
 3 -371 -372 368
 3 -373 -374 370
 3 -375 375 -377
 3 -378 378 379
 3 -380 -381 381
 3 -382 -383 383
 3 -384 -385 334
 3 -336 -386 374
 3 -387 338 -388
 3 -389 387 206
 3 -343 -390 343
 3 -348 -391 388
 3 391 350 -393
 3 -394 354 -215
 3 -354 392 47
 3 -357 394 393
 3 362 -396 -397
 3 -361 -398 355
 3 -364 398 372
 3 -376 399 395
 3 400 -402 -403
 3 264 400 -404
 3 263 403 -405
 3 405 -407 268
 3 406 -408 -409
 3 269 408 -410
 3 410 -412 265
 3 411 -413 -414
 3 256 414 -411
 3 -416 416 -418
 3 -419 415 419
 3 -421 421 -423
 3 423 420 -425
 3 407 424 -426
 3 291 426 -406
 3 280 413 -427
 3 -428 -429 429
 3 -431 427 431
 3 -433 433 -435
 3 -436 432 436
 3 435 437 -439
 3 -440 -437 440
 3 -442 -441 442
 3 443 -445 441
 3 -446 -444 446
 3 -448 444 448
 3 449 447 -451
 3 279 451 -332
 3 -453 -454 454
 3 455 452 -457
 3 457 458 -460
 3 -461 -458 461
 3 -463 -368 463
 3 -465 465 466
 3 467 464 -469
 3 -470 -366 459
 3 -471 -472 472
 3 -474 470 474
 3 -476 476 477
 3 386 475 -479
 3 -477 479 473
 3 -481 -475 481
 3 -478 480 -483
 3 483 -485 485
 3 -487 -484 487
 3 -489 -345 489
 3 490 482 -492
 3 492 -491 -494
 3 494 -496 496
 3 -498 -495 498
 3 -500 500 -502
 3 502 499 -504
 3 295 409 -505
 3 497 -506 506
 3 -508 352 508
 3 509 501 -511
 3 -488 511 -501
 3 512 486 -503
 3 513 -512 514
 3 258 404 -516
 3 507 -499 -392
 3 -450 -438 439
 3 516 -518 -515
 3 518 -517 -520
 3 -455 520 519
 3 -522 453 522
 3 -513 -395 484
 3 523 -525 428
 3 525 -524 526
 3 527 -526 528
 3 529 -449 -531
 3 430 530 -527
 3 -519 -432 531
 3 -464 369 532
 3 -534 418 521
 3 -535 -536 536
 3 412 534 -538
 3 510 -514 -482
 3 -417 533 -459
 3 -539 -533 539
 3 -467 538 -541
 3 -490 541 -528
 3 -540 371 542
 3 469 -544 -360
 3 -301 308 544
 3 -537 -545 545
 3 254 546 -415
 3 -547 297 535
 3 332 -548 -326
 3 548 549 -551
 3 -552 547 552
 3 553 554 -556
 3 468 -554 -557
 3 270 557 -452
 3 -558 515 -549
 3 551 -559 320
 3 559 -553 550
 3 -561 422 561
 3 425 560 -563
 3 -555 540 563
 3 293 504 -403
 3 564 -529 445
 3 565 -565 -567
 3 -402 562 -550
 3 -568 -569 569
 3 -571 558 571
 3 -560 572 -572
 3 -574 -424 537
 3 -575 566 575
 3 -577 574 577
 3 -468 417 460
 3 -579 -543 579
 3 -564 578 -581
 3 -576 -447 581
 3 488 -566 582
 3 -580 373 583
 3 -585 556 450
 3 -586 584 -530
 3 -420 585 -521
 3 -546 -313 586
 3 -588 384 588
 3 -590 567 590
 3 570 -592 322
 3 592 -573 -562
 3 -430 341 493
 3 -594 591 594
 3 595 -587 596
 3 573 -596 -422
 3 -598 -589 598
 3 -600 597 600
 3 -602 -434 602
 3 -603 603 580
 3 438 555 -604
 3 434 604 -606
 3 -607 -379 576
 3 607 -582 -443
 3 608 -578 -608
 3 606 -610 -611
 3 -612 -584 612
 3 601 611 -614
 3 614 -591 609
 3 605 -615 -609
 3 -466 -462 462
 3 -605 613 -616
 3 -617 617 -619
 3 616 -599 619
 3 -570 380 610
 3 -613 620 621
 3 -456 543 -523
 3 -623 -597 623
 3 -620 382 568
 3 -399 624 -621
 3 -486 397 456
 3 625 -624 311
 3 587 -627 385
 3 -618 589 615
 3 -493 336 478
 3 627 -626 351
 3 628 -628 -497
 3 -593 622 -595
 3 629 -625 396
 3 630 -630 -400
 3 -622 -601 618
 3 -532 491 517
 3 524 -542 389
 3 -350 593 -629
 3 471 -480 390
 3 495 -507 -473
 3 -510 505 631
 3 -509 503 -632
 3 626 599 -631
 3 -633 333 376
 3 361 -634 632
 3 -635 340 633
 3 357 -27 634
 3 -346 -583 377
 3 292 635 -637
 3 637 638 639
 3 640 -640 641
 3 642 -644 287
 3 635 637 -644
 3 -639 644 645
 3 -641 -647 647
 3 -642 -649 646
 3 648 -650 62
 3 -646 -651 649
 3 -645 -652 650
 3 651 -653 36
 3 -643 -317 652
 3 636 -654 313
 3 653 -648 -53
 3 654 -656 239
 3 655 656 -658
 3 -659 657 659
 3 660 -662 -663
 3 663 664 665
 3 664 661 -253
 3 666 663 -255
 3 -668 668 669
 3 670 671 672
 3 673 674 -673
 3 675 -671 676
 3 -678 678 671
 3 679 -681 681
 3 682 -684 684
 3 668 -684 -686
 3 -257 686 -667
 3 -292 682 -688
 3 -281 687 -689
 3 -266 688 -687
 3 689 690 -692
 3 690 -280 -693
 3 -693 693 694
 3 695 -695 696
 3 697 275 -696
 3 698 699 -701
 3 699 691 270
 3 684 -269 701
 3 702 -264 -259
 3 703 698 702
 3 -270 679 -702
 3 681 -296 -294
 3 264 680 -704
 3 658 660 -251
 3 678 704 667
 3 705 706 -708
 3 708 709 662
 3 710 -712 -676
 3 711 385 -713
 3 -714 322 -715
 3 341 -716 716
 3 389 -717 713
 3 -698 717 -330
 3 718 693 -720
 3 386 390 -721
 3 -326 718 -722
 3 722 -381 -724
 3 -724 724 382
 3 -707 725 -366
 3 301 -727 -655
 3 312 727 705
 3 -729 729 -731
 3 -674 731 -733
 3 -732 733 396
 3 -677 734 -711
 3 735 689 -722
 3 719 696 717
 3 720 -350 736
 3 737 738 -345
 3 715 336 -737
 3 739 700 -736
 3 320 739 -741
 3 714 740 -738
 3 -686 741 -725
 3 712 -743 -705
 3 742 384 -742
 3 -392 730 351
 3 743 744 -360
 3 -726 311 -744
 3 727 -666 708
 3 397 -745 -730
 3 745 722 -379
 3 738 -583 745
 3 746 -657 726
 3 747 -660 -747
 3 -309 747 -710
 3 707 -368 -749
 3 749 750 -372
 3 748 369 749
 3 750 373 -752
 3 -670 751 -753
 3 -678 753 -734
 3 -754 752 -399
 3 -395 728 352
 3 732 -755 -675
 3 754 -400 -735
 3 340 755 -14
 3 333 -757 -756
 3 756 757 -24
 3 376 -759 -758
 3 758 361 -760
 3 759 357 -12
 3 -641 760 -762
 3 674 762 -764
 3 675 764 -766
 3 -642 766 -761
 3 767 768 -770
 3 -674 770 -764
 3 -678 771 -771
 3 -670 772 -772
 3 773 774 -773
 3 665 773 -776
 3 662 775 -777
 3 659 776 -778
 3 656 777 -779
 3 654 778 -780
 3 -242 779 -781
 3 243 780 -782
 3 245 781 -783
 3 247 782 -784
 3 249 783 -785
 3 676 765 -786
 3 644 786 -788
 3 704 788 -765
 3 685 789 -789
 3 790 -769 -790
 3 -701 790 -792
 3 -690 791 -793
 3 -694 792 -794
 3 -697 793 -795
 3 -698 794 -796
 3 -277 795 -797
 3 -279 796 -798
 3 -283 797 -799
 3 -286 798 -800
 3 286 799 -801
 3 -646 786 -802
 3 769 802 774
 3 -637 784 -762
 3 785 -768 -763
 3 -643 800 -788
 3 801 802 -767
 }
Locations (  584) {
e e e e e e e e e e e e e e f f f f f f e e e e e e e e e e
e e e e e e f f f f f f f f f f f f f f f f f f f f f f f f
f f f f f f f f f f f f f f f f f f f f f f f f f f f f f f
f f f f f f f f f f f f f f f f f f f f f f f f f f f f f f
f f f f f f f f f f f f f f e e e e e e e e e e e e e e e e
e e f f f f f f f f f f f f f f f f f f f f f f f f f f f f
f f f f f f f f f f f f f f f f f f f f f f f f e e e e e e
e e e f f f e e e e e e e f f e e e e e e e e e e e e e e e
e e e e e e e e e e e e e e e e e e e e e e f f f f f f f f