DF-ISE text

Info {
  version = 1.0
  type    = boundary
  dimension   = 3
  nb_vertices = 184
  nb_edges    = 278
  nb_faces    = 97
  nb_elements = 2
  nb_regions  = 2
  regions     = [ "SUBS" "8.area" ]
  materials   = [ Silicon Oxide ]
}

Data {

  CoordSystem {
    translate = [  0.000000000000000e+00 0.000000000000000e+00 0.000000000000000e+00 ]
    transform = [  1.000000000000000e+00 0.000000000000000e+00 0.000000000000000e+00
 0.000000000000000e+00 1.000000000000000e+00 0.000000000000000e+00
 0.000000000000000e+00 0.000000000000000e+00 1.000000000000000e+00
 ]
  }

  Vertices (184) {
 1.584500000000000e+00 2.343000000000000e-01 0.000000000000000e+00
 1.600000000000000e+00 2.343000000000000e-01 0.000000000000000e+00
 1.548700000000000e+00 2.257000000000000e-01 0.000000000000000e+00
 1.503500000000000e+00 2.363000000000000e-01 0.000000000000000e+00
 1.451300000000000e+00 2.332000000000000e-01 0.000000000000000e+00
 1.395400000000000e+00 2.363000000000000e-01 0.000000000000000e+00
 1.350700000000000e+00 2.281000000000000e-01 0.000000000000000e+00
 1.302500000000000e+00 2.363000000000000e-01 0.000000000000000e+00
 1.250400000000000e+00 2.343000000000000e-01 0.000000000000000e+00
 1.200600000000000e+00 2.363000000000000e-01 0.000000000000000e+00
 1.150200000000000e+00 2.343000000000000e-01 0.000000000000000e+00
 1.099700000000000e+00 2.363000000000000e-01 0.000000000000000e+00
 1.048900000000000e+00 2.343000000000000e-01 0.000000000000000e+00
 9.715000000000000e-01 2.343000000000000e-01 0.000000000000000e+00
 8.986000000000001e-01 2.307000000000000e-01 0.000000000000000e+00
 8.468000000000001e-01 2.307000000000000e-01 0.000000000000000e+00
 7.973000000000001e-01 2.245000000000000e-01 0.000000000000000e+00
 7.448000000000000e-01 2.257000000000000e-01 0.000000000000000e+00
 6.946000000000001e-01 2.178000000000000e-01 0.000000000000000e+00
 6.434000000000001e-01 2.168000000000000e-01 0.000000000000000e+00
 5.367000000000001e-01 2.009000000000000e-01 0.000000000000000e+00
 4.804000000000000e-01 1.882000000000000e-01 0.000000000000000e+00
 4.154000000000000e-01 1.657000000000000e-01 0.000000000000000e+00
 3.557000000000000e-01 1.298000000000000e-01 0.000000000000000e+00
 3.274000000000000e-01 9.720000000000001e-02 0.000000000000000e+00
 2.463000000000000e-01 7.990000000000001e-02 0.000000000000000e+00
 1.488000000000000e-01 6.600000000000000e-02 0.000000000000000e+00
 9.940000000000000e-02 6.240000000000000e-02 0.000000000000000e+00
 0.000000000000000e+00 6.070000000000000e-02 0.000000000000000e+00
 -9.940000000000000e-02 6.240000000000000e-02 0.000000000000000e+00
 -1.488000000000000e-01 6.600000000000000e-02 0.000000000000000e+00
 -2.463000000000000e-01 7.990000000000001e-02 0.000000000000000e+00
 -3.274000000000000e-01 9.720000000000001e-02 0.000000000000000e+00
 -3.557000000000000e-01 1.298000000000000e-01 0.000000000000000e+00
 -4.154000000000000e-01 1.657000000000000e-01 0.000000000000000e+00
 -4.804000000000000e-01 1.882000000000000e-01 0.000000000000000e+00
 -5.367000000000001e-01 2.009000000000000e-01 0.000000000000000e+00
 -6.434000000000001e-01 2.168000000000000e-01 0.000000000000000e+00
 -6.946000000000001e-01 2.178000000000000e-01 0.000000000000000e+00
 -7.448000000000000e-01 2.257000000000000e-01 0.000000000000000e+00
 -7.973000000000001e-01 2.245000000000000e-01 0.000000000000000e+00
 -8.468000000000001e-01 2.307000000000000e-01 0.000000000000000e+00
 -8.986000000000001e-01 2.307000000000000e-01 0.000000000000000e+00
 -9.715000000000000e-01 2.343000000000000e-01 0.000000000000000e+00
 -1.048900000000000e+00 2.343000000000000e-01 0.000000000000000e+00
 -1.099700000000000e+00 2.363000000000000e-01 0.000000000000000e+00
 -1.150200000000000e+00 2.343000000000000e-01 0.000000000000000e+00
 -1.200600000000000e+00 2.363000000000000e-01 0.000000000000000e+00
 -1.250400000000000e+00 2.343000000000000e-01 0.000000000000000e+00
 -1.302500000000000e+00 2.363000000000000e-01 0.000000000000000e+00
 -1.350700000000000e+00 2.281000000000000e-01 0.000000000000000e+00
 -1.395400000000000e+00 2.363000000000000e-01 0.000000000000000e+00
 -1.451300000000000e+00 2.332000000000000e-01 0.000000000000000e+00
 -1.503500000000000e+00 2.363000000000000e-01 0.000000000000000e+00
 -1.548700000000000e+00 2.257000000000000e-01 0.000000000000000e+00
 -1.584500000000000e+00 2.343000000000000e-01 0.000000000000000e+00
 -1.600000000000000e+00 2.343000000000000e-01 0.000000000000000e+00
 -1.600000000000000e+00 2.200000000000000e+00 0.000000000000000e+00
 1.600000000000000e+00 2.200000000000000e+00 0.000000000000000e+00
 9.902000000000001e-01 -1.749000000000000e-01 0.000000000000000e+00
 1.600000000000000e+00 -1.749000000000000e-01 0.000000000000000e+00
 8.928000000000000e-01 -1.732000000000000e-01 0.000000000000000e+00
 6.862000000000000e-01 -1.604000000000000e-01 0.000000000000000e+00
 6.000000000000001e-01 -1.498000000000000e-01 0.000000000000000e+00
 5.293000000000000e-01 -1.369000000000000e-01 0.000000000000000e+00
 4.779000000000000e-01 -1.225000000000000e-01 0.000000000000000e+00
 4.303000000000000e-01 -1.011000000000000e-01 0.000000000000000e+00
 4.030000000000000e-01 -7.400000000000001e-02 0.000000000000000e+00
 4.103000000000001e-01 -4.280000000000000e-02 0.000000000000000e+00
 4.103000000000001e-01 -3.190000000000000e-02 0.000000000000000e+00
 4.030000000000000e-01 -2.010000000000000e-02 0.000000000000000e+00
 3.941000000000000e-01 -1.440000000000000e-02 0.000000000000000e+00
 2.665000000000000e-01 1.480000000000000e-02 0.000000000000000e+00
 1.609000000000000e-01 3.160000000000000e-02 0.000000000000000e+00
 1.071000000000000e-01 3.630000000000001e-02 0.000000000000000e+00
 0.000000000000000e+00 3.850000000000001e-02 0.000000000000000e+00
 -1.071000000000000e-01 3.630000000000001e-02 0.000000000000000e+00
 -1.609000000000000e-01 3.160000000000000e-02 0.000000000000000e+00
 -2.665000000000000e-01 1.480000000000000e-02 0.000000000000000e+00
 -3.941000000000000e-01 -1.440000000000000e-02 0.000000000000000e+00
 -4.030000000000000e-01 -2.010000000000000e-02 0.000000000000000e+00
 -4.103000000000001e-01 -3.190000000000000e-02 0.000000000000000e+00
 -4.103000000000001e-01 -4.280000000000000e-02 0.000000000000000e+00
 -4.030000000000000e-01 -7.400000000000001e-02 0.000000000000000e+00
 -4.303000000000000e-01 -1.011000000000000e-01 0.000000000000000e+00
 -4.779000000000000e-01 -1.225000000000000e-01 0.000000000000000e+00
 -5.293000000000000e-01 -1.369000000000000e-01 0.000000000000000e+00
 -6.000000000000001e-01 -1.498000000000000e-01 0.000000000000000e+00
 -6.862000000000000e-01 -1.604000000000000e-01 0.000000000000000e+00
 -8.928000000000000e-01 -1.732000000000000e-01 0.000000000000000e+00
 -9.902000000000001e-01 -1.749000000000000e-01 0.000000000000000e+00
 -1.600000000000000e+00 -1.749000000000000e-01 0.000000000000000e+00
 1.584500000000000e+00 2.343000000000000e-01 2.000000000000000e+00
 1.600000000000000e+00 2.343000000000000e-01 2.000000000000000e+00
 1.548700000000000e+00 2.257000000000000e-01 2.000000000000000e+00
 1.503500000000000e+00 2.363000000000000e-01 2.000000000000000e+00
 1.451300000000000e+00 2.332000000000000e-01 2.000000000000000e+00
 1.395400000000000e+00 2.363000000000000e-01 2.000000000000000e+00
 1.350700000000000e+00 2.281000000000000e-01 2.000000000000000e+00
 1.302500000000000e+00 2.363000000000000e-01 2.000000000000000e+00
 1.250400000000000e+00 2.343000000000000e-01 2.000000000000000e+00
 1.200600000000000e+00 2.363000000000000e-01 2.000000000000000e+00
 1.150200000000000e+00 2.343000000000000e-01 2.000000000000000e+00
 1.099700000000000e+00 2.363000000000000e-01 2.000000000000000e+00
 1.048900000000000e+00 2.343000000000000e-01 2.000000000000000e+00
 9.715000000000000e-01 2.343000000000000e-01 2.000000000000000e+00
 8.986000000000001e-01 2.307000000000000e-01 2.000000000000000e+00
 8.468000000000001e-01 2.307000000000000e-01 2.000000000000000e+00
 7.973000000000001e-01 2.245000000000000e-01 2.000000000000000e+00
 7.448000000000000e-01 2.257000000000000e-01 2.000000000000000e+00
 6.946000000000001e-01 2.178000000000000e-01 2.000000000000000e+00
 6.434000000000001e-01 2.168000000000000e-01 2.000000000000000e+00
 5.367000000000001e-01 2.009000000000000e-01 2.000000000000000e+00
 4.804000000000000e-01 1.882000000000000e-01 2.000000000000000e+00
 4.154000000000000e-01 1.657000000000000e-01 2.000000000000000e+00
 3.557000000000000e-01 1.298000000000000e-01 2.000000000000000e+00
 3.274000000000000e-01 9.720000000000001e-02 2.000000000000000e+00
 2.463000000000000e-01 7.990000000000001e-02 2.000000000000000e+00
 1.488000000000000e-01 6.600000000000000e-02 2.000000000000000e+00
 9.940000000000000e-02 6.240000000000000e-02 2.000000000000000e+00
 0.000000000000000e+00 6.070000000000000e-02 2.000000000000000e+00
 -9.940000000000000e-02 6.240000000000000e-02 2.000000000000000e+00
 -1.488000000000000e-01 6.600000000000000e-02 2.000000000000000e+00
 -2.463000000000000e-01 7.990000000000001e-02 2.000000000000000e+00
 -3.274000000000000e-01 9.720000000000001e-02 2.000000000000000e+00
 -3.557000000000000e-01 1.298000000000000e-01 2.000000000000000e+00
 -4.154000000000000e-01 1.657000000000000e-01 2.000000000000000e+00
 -4.804000000000000e-01 1.882000000000000e-01 2.000000000000000e+00
 -5.367000000000001e-01 2.009000000000000e-01 2.000000000000000e+00
 -6.434000000000001e-01 2.168000000000000e-01 2.000000000000000e+00
 -6.946000000000001e-01 2.178000000000000e-01 2.000000000000000e+00
 -7.448000000000000e-01 2.257000000000000e-01 2.000000000000000e+00
 -7.973000000000001e-01 2.245000000000000e-01 2.000000000000000e+00
 -8.468000000000001e-01 2.307000000000000e-01 2.000000000000000e+00
 -8.986000000000001e-01 2.307000000000000e-01 2.000000000000000e+00
 -9.715000000000000e-01 2.343000000000000e-01 2.000000000000000e+00
 -1.048900000000000e+00 2.343000000000000e-01 2.000000000000000e+00
 -1.099700000000000e+00 2.363000000000000e-01 2.000000000000000e+00
 -1.150200000000000e+00 2.343000000000000e-01 2.000000000000000e+00
 -1.200600000000000e+00 2.363000000000000e-01 2.000000000000000e+00
 -1.250400000000000e+00 2.343000000000000e-01 2.000000000000000e+00
 -1.302500000000000e+00 2.363000000000000e-01 2.000000000000000e+00
 -1.350700000000000e+00 2.281000000000000e-01 2.000000000000000e+00
 -1.395400000000000e+00 2.363000000000000e-01 2.000000000000000e+00
 -1.451300000000000e+00 2.332000000000000e-01 2.000000000000000e+00
 -1.503500000000000e+00 2.363000000000000e-01 2.000000000000000e+00
 -1.548700000000000e+00 2.257000000000000e-01 2.000000000000000e+00
 -1.584500000000000e+00 2.343000000000000e-01 2.000000000000000e+00
 -1.600000000000000e+00 2.343000000000000e-01 2.000000000000000e+00
 -1.600000000000000e+00 2.200000000000000e+00 2.000000000000000e+00
 1.600000000000000e+00 2.200000000000000e+00 2.000000000000000e+00
 9.902000000000001e-01 -1.749000000000000e-01 2.000000000000000e+00
 1.600000000000000e+00 -1.749000000000000e-01 2.000000000000000e+00
 8.928000000000000e-01 -1.732000000000000e-01 2.000000000000000e+00
 6.862000000000000e-01 -1.604000000000000e-01 2.000000000000000e+00
 6.000000000000001e-01 -1.498000000000000e-01 2.000000000000000e+00
 5.293000000000000e-01 -1.369000000000000e-01 2.000000000000000e+00
 4.779000000000000e-01 -1.225000000000000e-01 2.000000000000000e+00
 4.303000000000000e-01 -1.011000000000000e-01 2.000000000000000e+00
 4.030000000000000e-01 -7.400000000000001e-02 2.000000000000000e+00
 4.103000000000001e-01 -4.280000000000000e-02 2.000000000000000e+00
 4.103000000000001e-01 -3.190000000000000e-02 2.000000000000000e+00
 4.030000000000000e-01 -2.010000000000000e-02 2.000000000000000e+00
 3.941000000000000e-01 -1.440000000000000e-02 2.000000000000000e+00
 2.665000000000000e-01 1.480000000000000e-02 2.000000000000000e+00
 1.609000000000000e-01 3.160000000000000e-02 2.000000000000000e+00
 1.071000000000000e-01 3.630000000000001e-02 2.000000000000000e+00
 0.000000000000000e+00 3.850000000000001e-02 2.000000000000000e+00
 -1.071000000000000e-01 3.630000000000001e-02 2.000000000000000e+00
 -1.609000000000000e-01 3.160000000000000e-02 2.000000000000000e+00
 -2.665000000000000e-01 1.480000000000000e-02 2.000000000000000e+00
 -3.941000000000000e-01 -1.440000000000000e-02 2.000000000000000e+00
 -4.030000000000000e-01 -2.010000000000000e-02 2.000000000000000e+00
 -4.103000000000001e-01 -3.190000000000000e-02 2.000000000000000e+00
 -4.103000000000001e-01 -4.280000000000000e-02 2.000000000000000e+00
 -4.030000000000000e-01 -7.400000000000001e-02 2.000000000000000e+00
 -4.303000000000000e-01 -1.011000000000000e-01 2.000000000000000e+00
 -4.779000000000000e-01 -1.225000000000000e-01 2.000000000000000e+00
 -5.293000000000000e-01 -1.369000000000000e-01 2.000000000000000e+00
 -6.000000000000001e-01 -1.498000000000000e-01 2.000000000000000e+00
 -6.862000000000000e-01 -1.604000000000000e-01 2.000000000000000e+00
 -8.928000000000000e-01 -1.732000000000000e-01 2.000000000000000e+00
 -9.902000000000001e-01 -1.749000000000000e-01 2.000000000000000e+00
 -1.600000000000000e+00 -1.749000000000000e-01 2.000000000000000e+00

  }

  Edges (278) {
 1 0
 0 2
 2 3
 3 4
 4 5
 5 6
 6 7
 7 8
 8 9
 9 10
 10 11
 11 12
 12 13
 13 14
 14 15
 15 16
 16 17
 17 18
 18 19
 19 20
 20 21
 21 22
 22 23
 23 24
 24 25
 25 26
 26 27
 27 28
 28 29
 29 30
 30 31
 31 32
 32 33
 33 34
 34 35
 35 36
 36 37
 37 38
 38 39
 39 40
 40 41
 41 42
 42 43
 43 44
 44 45
 45 46
 46 47
 47 48
 48 49
 49 50
 50 51
 51 52
 52 53
 53 54
 54 55
 55 56
 56 57
 57 58
 58 1
 93 92
 92 94
 94 95
 95 96
 96 97
 97 98
 98 99
 99 100
 100 101
 101 102
 102 103
 103 104
 104 105
 105 106
 106 107
 107 108
 108 109
 109 110
 110 111
 111 112
 112 113
 113 114
 114 115
 115 116
 116 117
 117 118
 118 119
 119 120
 120 121
 121 122
 122 123
 123 124
 124 125
 125 126
 126 127
 127 128
 128 129
 129 130
 130 131
 131 132
 132 133
 133 134
 134 135
 135 136
 136 137
 137 138
 138 139
 139 140
 140 141
 141 142
 142 143
 143 144
 144 145
 145 146
 146 147
 147 148
 148 149
 149 150
 150 93
 0 92
 93 1
 2 94
 3 95
 4 96
 5 97
 6 98
 7 99
 8 100
 9 101
 10 102
 11 103
 12 104
 13 105
 14 106
 15 107
 16 108
 17 109
 18 110
 19 111
 20 112
 21 113
 22 114
 23 115
 24 116
 25 117
 26 118
 27 119
 28 120
 29 121
 30 122
 31 123
 32 124
 33 125
 34 126
 35 127
 36 128
 37 129
 38 130
 39 131
 40 132
 41 133
 42 134
 43 135
 44 136
 45 137
 46 138
 47 139
 48 140
 49 141
 50 142
 51 143
 52 144
 53 145
 54 146
 55 147
 56 148
 57 149
 58 150
 60 59
 59 61
 61 62
 62 63
 63 64
 64 65
 65 66
 66 67
 67 68
 68 69
 69 70
 70 71
 71 72
 72 73
 73 74
 74 75
 75 76
 76 77
 77 78
 78 79
 79 80
 80 81
 81 82
 82 83
 83 84
 84 85
 85 86
 86 87
 87 88
 88 89
 89 90
 90 91
 91 56
 1 60
 152 151
 151 153
 153 154
 154 155
 155 156
 156 157
 157 158
 158 159
 159 160
 160 161
 161 162
 162 163
 163 164
 164 165
 165 166
 166 167
 167 168
 168 169
 169 170
 170 171
 171 172
 172 173
 173 174
 174 175
 175 176
 176 177
 177 178
 178 179
 179 180
 180 181
 181 182
 182 183
 183 148
 93 152
 59 151
 152 60
 61 153
 62 154
 63 155
 64 156
 65 157
 66 158
 67 159
 68 160
 69 161
 70 162
 71 163
 72 164
 73 165
 74 166
 75 167
 76 168
 77 169
 78 170
 79 171
 80 172
 81 173
 82 174
 83 175
 84 176
 85 177
 86 178
 87 179
 88 180
 89 181
 90 182
 91 183

  }

  Faces (97) {
 59 0 1 2 3 4 5 6 7 8
 9 10 11 12 13 14 15 16 17 18
 19 20 21 22 23 24 25 26 27 28
 29 30 31 32 33 34 35 36 37 38
 39 40 41 42 43 44 45 46 47 48
 49 50 51 52 53 54 55 56 57 58

 59 59 60 61 62 63 64 65 66 67
 68 69 70 71 72 73 74 75 76 77
 78 79 80 81 82 83 84 85 86 87
 88 89 90 91 92 93 94 95 96 97
 98 99 100 101 102 103 104 105 106 107
 108 109 110 111 112 113 114 115 116 117

 4 0 118 -60 119
 4 1 120 -61 -119
 4 2 121 -62 -121
 4 3 122 -63 -122
 4 4 123 -64 -123
 4 5 124 -65 -124
 4 6 125 -66 -125
 4 7 126 -67 -126
 4 8 127 -68 -127
 4 9 128 -69 -128
 4 10 129 -70 -129
 4 11 130 -71 -130
 4 12 131 -72 -131
 4 13 132 -73 -132
 4 14 133 -74 -133
 4 15 134 -75 -134
 4 16 135 -76 -135
 4 17 136 -77 -136
 4 18 137 -78 -137
 4 19 138 -79 -138
 4 20 139 -80 -139
 4 21 140 -81 -140
 4 22 141 -82 -141
 4 23 142 -83 -142
 4 24 143 -84 -143
 4 25 144 -85 -144
 4 26 145 -86 -145
 4 27 146 -87 -146
 4 28 147 -88 -147
 4 29 148 -89 -148
 4 30 149 -90 -149
 4 31 150 -91 -150
 4 32 151 -92 -151
 4 33 152 -93 -152
 4 34 153 -94 -153
 4 35 154 -95 -154
 4 36 155 -96 -155
 4 37 156 -97 -156
 4 38 157 -98 -157
 4 39 158 -99 -158
 4 40 159 -100 -159
 4 41 160 -101 -160
 4 42 161 -102 -161
 4 43 162 -103 -162
 4 44 163 -104 -163
 4 45 164 -105 -164
 4 46 165 -106 -165
 4 47 166 -107 -166
 4 48 167 -108 -167
 4 49 168 -109 -168
 4 50 169 -110 -169
 4 51 170 -111 -170
 4 52 171 -112 -171
 4 53 172 -113 -172
 4 54 173 -114 -173
 4 55 174 -115 -174
 4 56 175 -116 -175
 4 57 176 -117 -176
 4 58 -120 -118 -177
 90 177 178 179 180 181 182 183 184 185
 186 187 188 189 190 191 192 193 194 195
 196 197 198 199 200 201 202 203 204 205
 206 207 208 209 -56 -55 -54 -53 -52 -51
 -50 -49 -48 -47 -46 -45 -44 -43 -42 -41
 -40 -39 -38 -37 -36 -35 -34 -33 -32 -31
 -30 -29 -28 -27 -26 -25 -24 -23 -22 -21
 -20 -19 -18 -17 -16 -15 -14 -13 -12 -11
 -10 -9 -8 -7 -6 -5 -4 -3 -2 -1
 210
 90 211 212 213 214 215 216 217 218 219
 220 221 222 223 224 225 226 227 228 229
 230 231 232 233 234 235 236 237 238 239
 240 241 242 243 -115 -114 -113 -112 -111 -110
 -109 -108 -107 -106 -105 -104 -103 -102 -101 -100
 -99 -98 -97 -96 -95 -94 -93 -92 -91 -90
 -89 -88 -87 -86 -85 -84 -83 -82 -81 -80
 -79 -78 -77 -76 -75 -74 -73 -72 -71 -70
 -69 -68 -67 -66 -65 -64 -63 -62 -61 -60
 244
 4 177 245 -212 246
 4 178 247 -213 -246
 4 179 248 -214 -248
 4 180 249 -215 -249
 4 181 250 -216 -250
 4 182 251 -217 -251
 4 183 252 -218 -252
 4 184 253 -219 -253
 4 185 254 -220 -254
 4 186 255 -221 -255
 4 187 256 -222 -256
 4 188 257 -223 -257
 4 189 258 -224 -258
 4 190 259 -225 -259
 4 191 260 -226 -260
 4 192 261 -227 -261
 4 193 262 -228 -262
 4 194 263 -229 -263
 4 195 264 -230 -264
 4 196 265 -231 -265
 4 197 266 -232 -266
 4 198 267 -233 -267
 4 199 268 -234 -268
 4 200 269 -235 -269
 4 201 270 -236 -270
 4 202 271 -237 -271
 4 203 272 -238 -272
 4 204 273 -239 -273
 4 205 274 -240 -274
 4 206 275 -241 -275
 4 207 276 -242 -276
 4 208 277 -243 -277
 4 209 174 -244 -278
 4 210 -247 -245 119

  }

  Locations (97) {
eeffffffff
ffffffffff
ffffffffff
ffffffffff
ffffffffff
ffffffffee
eeeeeeeeee
eeeeeeeeee
eeeeeeeeee
eeeeeee
  }

  Elements (2) {
 10 61 0 -2 -3 -4 -5 -6 -7 -8
 -9 -10 -11 -12 -13 -14 -15 -16 -17 -18
 -19 -20 -21 -22 -23 -24 -25 -26 -27 -28
 -29 -30 -31 -32 -33 -34 -35 -36 -37 -38
 -39 -40 -41 -42 -43 -44 -45 -46 -47 -48
 -49 -50 -51 -52 -53 -54 -55 -56 -57 -58
 -59 -60 -61
 10 92 61 -63 -64 -65 -66 -67 -68 -69
 -70 -71 -72 -73 -74 -75 -76 -77 -78 -79
 -80 -81 -82 -83 -84 -85 -86 -87 -88 -89
 -90 -91 -92 -93 -94 -95 -96 57 56 55
 54 53 52 51 50 49 48 47 46 45
 44 43 42 41 40 39 38 37 36 35
 34 33 32 31 30 29 28 27 26 25
 24 23 22 21 20 19 18 17 16 15
 14 13 12 11 10 9 8 7 6 5
 4 3 2 -97

  }

  Region ("SUBS") {
    material = Silicon
    Elements (1) {
 0
    }
  }

  Region ("8.area") {
    material = Oxide
    Elements (1) {
 1
    }
  }

}
