DF-ISE text

Info {
  version = 1.0
  type    = boundary
  dimension   = 3
  nb_vertices = 660
  nb_edges    = 1008
  nb_faces    = 359
  nb_elements = 179
  nb_regions  = 8
  regions     = [ "SUBS" "10.area" "7.area" "24.area" "25.area" "cntgate" "gate" "bulk" ]
  materials   = [ Silicon PolySi PolySi Si3N4 Oxide Contact Contact Contact ]
}

Data {

  CoordSystem {
    translate = [  0.000000000000000e+00 0.000000000000000e+00 0.000000000000000e+00 ]
    transform = [  1.000000000000000e+00 0.000000000000000e+00 0.000000000000000e+00
 0.000000000000000e+00 1.000000000000000e+00 0.000000000000000e+00
 0.000000000000000e+00 0.000000000000000e+00 1.000000000000000e+00
 ]
  }

  Vertices (660) {
 1.600000000000000e+00 2.359000000000000e-01 0.000000000000000e+00
 1.600000000000000e+00 2.200000000000000e+00 0.000000000000000e+00
 0.000000000000000e+00 2.200000000000000e+00 0.000000000000000e+00
 0.000000000000000e+00 6.500000000000000e-02 0.000000000000000e+00
 4.460000000000000e-02 6.550000000000000e-02 0.000000000000000e+00
 7.050000000000001e-02 6.610000000000001e-02 0.000000000000000e+00
 9.230000000000001e-02 6.630000000000001e-02 0.000000000000000e+00
 1.020000000000000e-01 6.600000000000000e-02 0.000000000000000e+00
 1.037000000000000e-01 6.510000000000001e-02 0.000000000000000e+00
 1.485000000000000e-01 6.850000000000001e-02 0.000000000000000e+00
 1.974000000000000e-01 7.430000000000000e-02 0.000000000000000e+00
 2.460000000000000e-01 8.180000000000001e-02 0.000000000000000e+00
 2.938000000000000e-01 9.080000000000001e-02 0.000000000000000e+00
 3.266000000000000e-01 9.860000000000001e-02 0.000000000000000e+00
 3.548000000000000e-01 1.309000000000000e-01 0.000000000000000e+00
 4.149000000000000e-01 1.666000000000000e-01 0.000000000000000e+00
 4.482000000000000e-01 1.779000000000000e-01 0.000000000000000e+00
 4.801000000000000e-01 1.891000000000000e-01 0.000000000000000e+00
 5.365000000000001e-01 2.018000000000000e-01 0.000000000000000e+00
 5.898000000000001e-01 2.102000000000000e-01 0.000000000000000e+00
 6.433000000000001e-01 2.176000000000000e-01 0.000000000000000e+00
 6.945000000000000e-01 2.187000000000000e-01 0.000000000000000e+00
 7.447000000000000e-01 2.266000000000000e-01 0.000000000000000e+00
 7.972000000000000e-01 2.255000000000000e-01 0.000000000000000e+00
 8.467000000000001e-01 2.317000000000000e-01 0.000000000000000e+00
 8.986000000000001e-01 2.313000000000000e-01 0.000000000000000e+00
 9.485000000000001e-01 2.346000000000000e-01 0.000000000000000e+00
 1.099700000000000e+00 2.372000000000000e-01 0.000000000000000e+00
 1.150200000000000e+00 2.359000000000000e-01 0.000000000000000e+00
 1.200600000000000e+00 2.385000000000000e-01 0.000000000000000e+00
 1.250400000000000e+00 2.359000000000000e-01 0.000000000000000e+00
 1.302600000000000e+00 2.385000000000000e-01 0.000000000000000e+00
 1.350700000000000e+00 2.298000000000000e-01 0.000000000000000e+00
 1.395200000000000e+00 2.385000000000000e-01 0.000000000000000e+00
 1.451400000000000e+00 2.348000000000000e-01 0.000000000000000e+00
 1.503600000000000e+00 2.372000000000000e-01 0.000000000000000e+00
 1.548700000000000e+00 2.281000000000000e-01 0.000000000000000e+00
 1.585800000000000e+00 2.359000000000000e-01 0.000000000000000e+00
 0.000000000000000e+00 5.710000000000000e-02 0.000000000000000e+00
 0.000000000000000e+00 -1.306000000000000e-01 0.000000000000000e+00
 9.720000000000001e-02 -1.291000000000000e-01 0.000000000000000e+00
 1.447000000000000e-01 -1.331000000000000e-01 0.000000000000000e+00
 1.908000000000000e-01 -1.398000000000000e-01 0.000000000000000e+00
 2.387000000000000e-01 -1.492000000000000e-01 0.000000000000000e+00
 2.636000000000000e-01 -1.595000000000000e-01 0.000000000000000e+00
 3.015000000000000e-01 -2.014000000000000e-01 0.000000000000000e+00
 3.371000000000000e-01 -2.325000000000000e-01 0.000000000000000e+00
 3.624000000000001e-01 -2.480000000000000e-01 0.000000000000000e+00
 4.307000000000000e-01 -2.775000000000000e-01 0.000000000000000e+00
 4.930000000000000e-01 -2.945000000000000e-01 0.000000000000000e+00
 5.553000000000000e-01 -3.073000000000000e-01 0.000000000000000e+00
 6.708000000000001e-01 -3.237000000000000e-01 0.000000000000000e+00
 8.336000000000001e-01 -3.367000000000001e-01 0.000000000000000e+00
 8.872000000000001e-01 -3.374000000000000e-01 0.000000000000000e+00
 8.921000000000001e-01 -1.550000000000000e-01 0.000000000000000e+00
 5.875000000000000e-01 -1.216000000000000e-01 0.000000000000000e+00
 5.369000000000000e-01 -1.115000000000000e-01 0.000000000000000e+00
 4.885000000000000e-01 -9.790000000000001e-02 0.000000000000000e+00
 4.464000000000000e-01 -7.920000000000001e-02 0.000000000000000e+00
 4.329000000000001e-01 -6.690000000000000e-02 0.000000000000000e+00
 4.372000000000000e-01 -3.990000000000000e-02 0.000000000000000e+00
 4.373000000000000e-01 -2.970000000000000e-02 0.000000000000000e+00
 4.257000000000000e-01 -6.100000000000000e-03 0.000000000000000e+00
 4.079000000000000e-01 7.700000000000000e-03 0.000000000000000e+00
 3.958000000000000e-01 1.220000000000000e-02 0.000000000000000e+00
 3.728000000000000e-01 1.780000000000000e-02 0.000000000000000e+00
 3.239000000000000e-01 2.880000000000000e-02 0.000000000000000e+00
 2.722000000000000e-01 3.840000000000000e-02 0.000000000000000e+00
 2.189000000000000e-01 4.740000000000000e-02 0.000000000000000e+00
 1.643000000000000e-01 5.450000000000001e-02 0.000000000000000e+00
 9.960000000000001e-02 5.970000000000000e-02 0.000000000000000e+00
 9.200000000000001e-02 5.900000000000000e-02 0.000000000000000e+00
 7.080000000000000e-02 5.800000000000000e-02 0.000000000000000e+00
 4.980000000000000e-02 5.730000000000000e-02 0.000000000000000e+00
 1.235900000000000e+00 -3.035000000000000e-01 0.000000000000000e+00
 1.231500000000000e+00 -3.063000000000000e-01 0.000000000000000e+00
 1.232600000000000e+00 -1.647000000000000e-01 0.000000000000000e+00
 1.223100000000000e+00 -1.595000000000000e-01 0.000000000000000e+00
 1.198600000000000e+00 -1.575000000000000e-01 0.000000000000000e+00
 9.257000000000001e-01 -1.512000000000000e-01 0.000000000000000e+00
 9.286000000000001e-01 -1.670000000000000e-01 0.000000000000000e+00
 9.296000000000001e-01 -2.243000000000000e-01 0.000000000000000e+00
 9.296000000000001e-01 -3.063000000000000e-01 0.000000000000000e+00
 9.276000000000001e-01 -3.367000000000001e-01 0.000000000000000e+00
 9.193000000000001e-01 -3.578000000000000e-01 0.000000000000000e+00
 9.111000000000000e-01 -3.688000000000000e-01 0.000000000000000e+00
 8.898000000000000e-01 -3.758000000000000e-01 0.000000000000000e+00
 8.322000000000001e-01 -3.768000000000000e-01 0.000000000000000e+00
 6.676000000000001e-01 -3.636000000000000e-01 0.000000000000000e+00
 5.481000000000000e-01 -3.497000000000000e-01 0.000000000000000e+00
 4.833000000000001e-01 -3.367000000000001e-01 0.000000000000000e+00
 4.017000000000001e-01 -3.121000000000000e-01 0.000000000000000e+00
 3.432000000000000e-01 -2.859000000000000e-01 0.000000000000000e+00
 3.125000000000000e-01 -2.673000000000000e-01 0.000000000000000e+00
 2.713000000000000e-01 -2.325000000000000e-01 0.000000000000000e+00
 2.494000000000000e-01 -2.061000000000000e-01 0.000000000000000e+00
 2.387000000000000e-01 -1.872000000000000e-01 0.000000000000000e+00
 1.416000000000000e-01 -1.750000000000000e-01 0.000000000000000e+00
 9.720000000000001e-02 -1.727000000000000e-01 0.000000000000000e+00
 0.000000000000000e+00 -1.750000000000000e-01 0.000000000000000e+00
 0.000000000000000e+00 -3.250000000000000e-01 0.000000000000000e+00
 9.550000000000000e-02 -3.230000000000000e-01 0.000000000000000e+00
 1.552000000000000e-01 -3.280000000000000e-01 0.000000000000000e+00
 1.655000000000000e-01 -3.390000000000000e-01 0.000000000000000e+00
 2.024000000000000e-01 -3.717000000000000e-01 0.000000000000000e+00
 2.468000000000000e-01 -4.038000000000000e-01 0.000000000000000e+00
 2.769000000000000e-01 -4.203000000000000e-01 0.000000000000000e+00
 3.451000000000000e-01 -4.511000000000001e-01 0.000000000000000e+00
 3.701000000000000e-01 -4.603000000000000e-01 0.000000000000000e+00
 4.449000000000000e-01 -4.823000000000001e-01 0.000000000000000e+00
 5.238000000000000e-01 -4.978000000000000e-01 0.000000000000000e+00
 5.911000000000001e-01 -5.070000000000000e-01 0.000000000000000e+00
 7.665000000000001e-01 -5.229000000000000e-01 0.000000000000000e+00
 8.284000000000000e-01 -5.270000000000000e-01 0.000000000000000e+00
 9.090000000000000e-01 -5.247000000000001e-01 0.000000000000000e+00
 9.474000000000001e-01 -5.151000000000000e-01 0.000000000000000e+00
 9.789000000000001e-01 -5.028000000000000e-01 0.000000000000000e+00
 1.008700000000000e+00 -4.823000000000001e-01 0.000000000000000e+00
 1.025800000000000e+00 -4.657000000000001e-01 0.000000000000000e+00
 1.048400000000000e+00 -4.349000000000000e-01 0.000000000000000e+00
 1.065100000000000e+00 -3.993000000000000e-01 0.000000000000000e+00
 1.072100000000000e+00 -3.783000000000000e-01 0.000000000000000e+00
 1.077400000000000e+00 -3.509000000000000e-01 0.000000000000000e+00
 1.079700000000000e+00 -3.063000000000000e-01 0.000000000000000e+00
 9.720000000000001e-02 -1.647000000000000e-01 0.000000000000000e+00
 0.000000000000000e+00 -1.670000000000000e-01 0.000000000000000e+00
 1.416000000000000e-01 -1.670000000000000e-01 0.000000000000000e+00
 2.441000000000000e-01 -1.798000000000000e-01 0.000000000000000e+00
 2.559000000000000e-01 -2.014000000000000e-01 0.000000000000000e+00
 2.769000000000000e-01 -2.266000000000000e-01 0.000000000000000e+00
 3.172000000000000e-01 -2.608000000000000e-01 0.000000000000000e+00
 3.467000000000000e-01 -2.787000000000000e-01 0.000000000000000e+00
 4.197000000000000e-01 -3.102000000000000e-01 0.000000000000000e+00
 4.850000000000000e-01 -3.294000000000000e-01 0.000000000000000e+00
 5.494000000000000e-01 -3.418000000000000e-01 0.000000000000000e+00
 6.676000000000001e-01 -3.560000000000000e-01 0.000000000000000e+00
 8.322000000000001e-01 -3.688000000000000e-01 0.000000000000000e+00
 8.898000000000000e-01 -3.678000000000000e-01 0.000000000000000e+00
 8.990000000000000e-01 -3.636000000000000e-01 0.000000000000000e+00
 9.076000000000001e-01 -3.618000000000000e-01 0.000000000000000e+00
 9.204000000000001e-01 -3.320000000000000e-01 0.000000000000000e+00
 9.181000000000000e-01 -1.537000000000000e-01 0.000000000000000e+00
 9.128000000000001e-01 -1.431000000000000e-01 0.000000000000000e+00
 1.147900000000000e+00 -1.477000000000000e-01 0.000000000000000e+00
 1.240300000000000e+00 -1.455000000000000e-01 0.000000000000000e+00
 1.240300000000000e+00 -1.345000000000000e-01 0.000000000000000e+00
 1.097300000000000e+00 -1.365000000000000e-01 0.000000000000000e+00
 9.008000000000000e-01 -1.306000000000000e-01 0.000000000000000e+00
 9.035000000000001e-01 -1.492000000000000e-01 0.000000000000000e+00
 9.090000000000000e-01 -1.629000000000000e-01 0.000000000000000e+00
 9.076000000000001e-01 -2.431000000000000e-01 0.000000000000000e+00
 9.076000000000001e-01 -3.367000000000001e-01 0.000000000000000e+00
 9.020000000000000e-01 -3.524000000000000e-01 0.000000000000000e+00
 8.955000000000001e-01 -3.524000000000000e-01 0.000000000000000e+00
 8.887000000000000e-01 -3.560000000000000e-01 0.000000000000000e+00
 8.322000000000001e-01 -3.578000000000000e-01 0.000000000000000e+00
 6.687000000000001e-01 -3.450000000000000e-01 0.000000000000000e+00
 5.512000000000000e-01 -3.310000000000000e-01 0.000000000000000e+00
 4.873000000000001e-01 -3.187000000000000e-01 0.000000000000000e+00
 4.089000000000000e-01 -2.945000000000000e-01 0.000000000000000e+00
 3.371000000000000e-01 -2.608000000000000e-01 0.000000000000000e+00
 3.106000000000000e-01 -2.417000000000000e-01 0.000000000000000e+00
 2.759000000000000e-01 -2.098000000000000e-01 0.000000000000000e+00
 2.559000000000000e-01 -1.798000000000000e-01 0.000000000000000e+00
 2.527000000000000e-01 -1.709000000000000e-01 0.000000000000000e+00
 1.416000000000000e-01 -1.560000000000000e-01 0.000000000000000e+00
 9.720000000000001e-02 -1.537000000000000e-01 0.000000000000000e+00
 0.000000000000000e+00 -1.560000000000000e-01 0.000000000000000e+00
 1.600000000000000e+00 -3.035000000000000e-01 0.000000000000000e+00
 1.600000000000000e+00 2.359000000000000e-01 2.000000000000000e+00
 1.600000000000000e+00 2.200000000000000e+00 2.000000000000000e+00
 0.000000000000000e+00 2.200000000000000e+00 2.000000000000000e+00
 0.000000000000000e+00 6.500000000000000e-02 2.000000000000000e+00
 4.460000000000000e-02 6.550000000000000e-02 2.000000000000000e+00
 7.050000000000001e-02 6.610000000000001e-02 2.000000000000000e+00
 9.230000000000001e-02 6.630000000000001e-02 2.000000000000000e+00
 1.020000000000000e-01 6.600000000000000e-02 2.000000000000000e+00
 1.037000000000000e-01 6.510000000000001e-02 2.000000000000000e+00
 1.485000000000000e-01 6.850000000000001e-02 2.000000000000000e+00
 1.974000000000000e-01 7.430000000000000e-02 2.000000000000000e+00
 2.460000000000000e-01 8.180000000000001e-02 2.000000000000000e+00
 2.938000000000000e-01 9.080000000000001e-02 2.000000000000000e+00
 3.266000000000000e-01 9.860000000000001e-02 2.000000000000000e+00
 3.548000000000000e-01 1.309000000000000e-01 2.000000000000000e+00
 4.149000000000000e-01 1.666000000000000e-01 2.000000000000000e+00
 4.482000000000000e-01 1.779000000000000e-01 2.000000000000000e+00
 4.801000000000000e-01 1.891000000000000e-01 2.000000000000000e+00
 5.365000000000001e-01 2.018000000000000e-01 2.000000000000000e+00
 5.898000000000001e-01 2.102000000000000e-01 2.000000000000000e+00
 6.433000000000001e-01 2.176000000000000e-01 2.000000000000000e+00
 6.945000000000000e-01 2.187000000000000e-01 2.000000000000000e+00
 7.447000000000000e-01 2.266000000000000e-01 2.000000000000000e+00
 7.972000000000000e-01 2.255000000000000e-01 2.000000000000000e+00
 8.467000000000001e-01 2.317000000000000e-01 2.000000000000000e+00
 8.986000000000001e-01 2.313000000000000e-01 2.000000000000000e+00
 9.485000000000001e-01 2.346000000000000e-01 2.000000000000000e+00
 1.099700000000000e+00 2.372000000000000e-01 2.000000000000000e+00
 1.150200000000000e+00 2.359000000000000e-01 2.000000000000000e+00
 1.200600000000000e+00 2.385000000000000e-01 2.000000000000000e+00
 1.250400000000000e+00 2.359000000000000e-01 2.000000000000000e+00
 1.302600000000000e+00 2.385000000000000e-01 2.000000000000000e+00
 1.350700000000000e+00 2.298000000000000e-01 2.000000000000000e+00
 1.395200000000000e+00 2.385000000000000e-01 2.000000000000000e+00
 1.451400000000000e+00 2.348000000000000e-01 2.000000000000000e+00
 1.503600000000000e+00 2.372000000000000e-01 2.000000000000000e+00
 1.548700000000000e+00 2.281000000000000e-01 2.000000000000000e+00
 1.585800000000000e+00 2.359000000000000e-01 2.000000000000000e+00
 0.000000000000000e+00 5.710000000000000e-02 2.000000000000000e+00
 0.000000000000000e+00 -1.306000000000000e-01 2.000000000000000e+00
 9.720000000000001e-02 -1.291000000000000e-01 2.000000000000000e+00
 1.447000000000000e-01 -1.331000000000000e-01 2.000000000000000e+00
 1.908000000000000e-01 -1.398000000000000e-01 2.000000000000000e+00
 2.387000000000000e-01 -1.492000000000000e-01 2.000000000000000e+00
 2.636000000000000e-01 -1.595000000000000e-01 2.000000000000000e+00
 3.015000000000000e-01 -2.014000000000000e-01 2.000000000000000e+00
 3.371000000000000e-01 -2.325000000000000e-01 2.000000000000000e+00
 3.624000000000001e-01 -2.480000000000000e-01 2.000000000000000e+00
 4.307000000000000e-01 -2.775000000000000e-01 2.000000000000000e+00
 4.930000000000000e-01 -2.945000000000000e-01 2.000000000000000e+00
 5.553000000000000e-01 -3.073000000000000e-01 2.000000000000000e+00
 6.708000000000001e-01 -3.237000000000000e-01 2.000000000000000e+00
 8.336000000000001e-01 -3.367000000000001e-01 2.000000000000000e+00
 8.872000000000001e-01 -3.374000000000000e-01 2.000000000000000e+00
 8.921000000000001e-01 -1.550000000000000e-01 2.000000000000000e+00
 5.875000000000000e-01 -1.216000000000000e-01 2.000000000000000e+00
 5.369000000000000e-01 -1.115000000000000e-01 2.000000000000000e+00
 4.885000000000000e-01 -9.790000000000001e-02 2.000000000000000e+00
 4.464000000000000e-01 -7.920000000000001e-02 2.000000000000000e+00
 4.329000000000001e-01 -6.690000000000000e-02 2.000000000000000e+00
 4.372000000000000e-01 -3.990000000000000e-02 2.000000000000000e+00
 4.373000000000000e-01 -2.970000000000000e-02 2.000000000000000e+00
 4.257000000000000e-01 -6.100000000000000e-03 2.000000000000000e+00
 4.079000000000000e-01 7.700000000000000e-03 2.000000000000000e+00
 3.958000000000000e-01 1.220000000000000e-02 2.000000000000000e+00
 3.728000000000000e-01 1.780000000000000e-02 2.000000000000000e+00
 3.239000000000000e-01 2.880000000000000e-02 2.000000000000000e+00
 2.722000000000000e-01 3.840000000000000e-02 2.000000000000000e+00
 2.189000000000000e-01 4.740000000000000e-02 2.000000000000000e+00
 1.643000000000000e-01 5.450000000000001e-02 2.000000000000000e+00
 9.960000000000001e-02 5.970000000000000e-02 2.000000000000000e+00
 9.200000000000001e-02 5.900000000000000e-02 2.000000000000000e+00
 7.080000000000000e-02 5.800000000000000e-02 2.000000000000000e+00
 4.980000000000000e-02 5.730000000000000e-02 2.000000000000000e+00
 1.235900000000000e+00 -3.035000000000000e-01 2.000000000000000e+00
 1.231500000000000e+00 -3.063000000000000e-01 2.000000000000000e+00
 1.232600000000000e+00 -1.647000000000000e-01 2.000000000000000e+00
 1.223100000000000e+00 -1.595000000000000e-01 2.000000000000000e+00
 1.198600000000000e+00 -1.575000000000000e-01 2.000000000000000e+00
 9.257000000000001e-01 -1.512000000000000e-01 2.000000000000000e+00
 9.286000000000001e-01 -1.670000000000000e-01 2.000000000000000e+00
 9.296000000000001e-01 -2.243000000000000e-01 2.000000000000000e+00
 9.296000000000001e-01 -3.063000000000000e-01 2.000000000000000e+00
 9.276000000000001e-01 -3.367000000000001e-01 2.000000000000000e+00
 9.193000000000001e-01 -3.578000000000000e-01 2.000000000000000e+00
 9.111000000000000e-01 -3.688000000000000e-01 2.000000000000000e+00
 8.898000000000000e-01 -3.758000000000000e-01 2.000000000000000e+00
 8.322000000000001e-01 -3.768000000000000e-01 2.000000000000000e+00
 6.676000000000001e-01 -3.636000000000000e-01 2.000000000000000e+00
 5.481000000000000e-01 -3.497000000000000e-01 2.000000000000000e+00
 4.833000000000001e-01 -3.367000000000001e-01 2.000000000000000e+00
 4.017000000000001e-01 -3.121000000000000e-01 2.000000000000000e+00
 3.432000000000000e-01 -2.859000000000000e-01 2.000000000000000e+00
 3.125000000000000e-01 -2.673000000000000e-01 2.000000000000000e+00
 2.713000000000000e-01 -2.325000000000000e-01 2.000000000000000e+00
 2.494000000000000e-01 -2.061000000000000e-01 2.000000000000000e+00
 2.387000000000000e-01 -1.872000000000000e-01 2.000000000000000e+00
 1.416000000000000e-01 -1.750000000000000e-01 2.000000000000000e+00
 9.720000000000001e-02 -1.727000000000000e-01 2.000000000000000e+00
 0.000000000000000e+00 -1.750000000000000e-01 2.000000000000000e+00
 0.000000000000000e+00 -3.250000000000000e-01 2.000000000000000e+00
 9.550000000000000e-02 -3.230000000000000e-01 2.000000000000000e+00
 1.552000000000000e-01 -3.280000000000000e-01 2.000000000000000e+00
 1.655000000000000e-01 -3.390000000000000e-01 2.000000000000000e+00
 2.024000000000000e-01 -3.717000000000000e-01 2.000000000000000e+00
 2.468000000000000e-01 -4.038000000000000e-01 2.000000000000000e+00
 2.769000000000000e-01 -4.203000000000000e-01 2.000000000000000e+00
 3.451000000000000e-01 -4.511000000000001e-01 2.000000000000000e+00
 3.701000000000000e-01 -4.603000000000000e-01 2.000000000000000e+00
 4.449000000000000e-01 -4.823000000000001e-01 2.000000000000000e+00
 5.238000000000000e-01 -4.978000000000000e-01 2.000000000000000e+00
 5.911000000000001e-01 -5.070000000000000e-01 2.000000000000000e+00
 7.665000000000001e-01 -5.229000000000000e-01 2.000000000000000e+00
 8.284000000000000e-01 -5.270000000000000e-01 2.000000000000000e+00
 9.090000000000000e-01 -5.247000000000001e-01 2.000000000000000e+00
 9.474000000000001e-01 -5.151000000000000e-01 2.000000000000000e+00
 9.789000000000001e-01 -5.028000000000000e-01 2.000000000000000e+00
 1.008700000000000e+00 -4.823000000000001e-01 2.000000000000000e+00
 1.025800000000000e+00 -4.657000000000001e-01 2.000000000000000e+00
 1.048400000000000e+00 -4.349000000000000e-01 2.000000000000000e+00
 1.065100000000000e+00 -3.993000000000000e-01 2.000000000000000e+00
 1.072100000000000e+00 -3.783000000000000e-01 2.000000000000000e+00
 1.077400000000000e+00 -3.509000000000000e-01 2.000000000000000e+00
 1.079700000000000e+00 -3.063000000000000e-01 2.000000000000000e+00
 9.720000000000001e-02 -1.647000000000000e-01 2.000000000000000e+00
 0.000000000000000e+00 -1.670000000000000e-01 2.000000000000000e+00
 1.416000000000000e-01 -1.670000000000000e-01 2.000000000000000e+00
 2.441000000000000e-01 -1.798000000000000e-01 2.000000000000000e+00
 2.559000000000000e-01 -2.014000000000000e-01 2.000000000000000e+00
 2.769000000000000e-01 -2.266000000000000e-01 2.000000000000000e+00
 3.172000000000000e-01 -2.608000000000000e-01 2.000000000000000e+00
 3.467000000000000e-01 -2.787000000000000e-01 2.000000000000000e+00
 4.197000000000000e-01 -3.102000000000000e-01 2.000000000000000e+00
 4.850000000000000e-01 -3.294000000000000e-01 2.000000000000000e+00
 5.494000000000000e-01 -3.418000000000000e-01 2.000000000000000e+00
 6.676000000000001e-01 -3.560000000000000e-01 2.000000000000000e+00
 8.322000000000001e-01 -3.688000000000000e-01 2.000000000000000e+00
 8.898000000000000e-01 -3.678000000000000e-01 2.000000000000000e+00
 8.990000000000000e-01 -3.636000000000000e-01 2.000000000000000e+00
 9.076000000000001e-01 -3.618000000000000e-01 2.000000000000000e+00
 9.204000000000001e-01 -3.320000000000000e-01 2.000000000000000e+00
 9.181000000000000e-01 -1.537000000000000e-01 2.000000000000000e+00
 9.128000000000001e-01 -1.431000000000000e-01 2.000000000000000e+00
 1.147900000000000e+00 -1.477000000000000e-01 2.000000000000000e+00
 1.240300000000000e+00 -1.455000000000000e-01 2.000000000000000e+00
 1.240300000000000e+00 -1.345000000000000e-01 2.000000000000000e+00
 1.097300000000000e+00 -1.365000000000000e-01 2.000000000000000e+00
 9.008000000000000e-01 -1.306000000000000e-01 2.000000000000000e+00
 9.035000000000001e-01 -1.492000000000000e-01 2.000000000000000e+00
 9.090000000000000e-01 -1.629000000000000e-01 2.000000000000000e+00
 9.076000000000001e-01 -2.431000000000000e-01 2.000000000000000e+00
 9.076000000000001e-01 -3.367000000000001e-01 2.000000000000000e+00
 9.020000000000000e-01 -3.524000000000000e-01 2.000000000000000e+00
 8.955000000000001e-01 -3.524000000000000e-01 2.000000000000000e+00
 8.887000000000000e-01 -3.560000000000000e-01 2.000000000000000e+00
 8.322000000000001e-01 -3.578000000000000e-01 2.000000000000000e+00
 6.687000000000001e-01 -3.450000000000000e-01 2.000000000000000e+00
 5.512000000000000e-01 -3.310000000000000e-01 2.000000000000000e+00
 4.873000000000001e-01 -3.187000000000000e-01 2.000000000000000e+00
 4.089000000000000e-01 -2.945000000000000e-01 2.000000000000000e+00
 3.371000000000000e-01 -2.608000000000000e-01 2.000000000000000e+00
 3.106000000000000e-01 -2.417000000000000e-01 2.000000000000000e+00
 2.759000000000000e-01 -2.098000000000000e-01 2.000000000000000e+00
 2.559000000000000e-01 -1.798000000000000e-01 2.000000000000000e+00
 2.527000000000000e-01 -1.709000000000000e-01 2.000000000000000e+00
 1.416000000000000e-01 -1.560000000000000e-01 2.000000000000000e+00
 9.720000000000001e-02 -1.537000000000000e-01 2.000000000000000e+00
 0.000000000000000e+00 -1.560000000000000e-01 2.000000000000000e+00
 1.600000000000000e+00 -3.035000000000000e-01 2.000000000000000e+00
 -1.600000000000000e+00 2.359000000000000e-01 0.000000000000000e+00
 -1.600000000000000e+00 2.200000000000000e+00 0.000000000000000e+00
 -4.460000000000000e-02 6.550000000000000e-02 0.000000000000000e+00
 -7.050000000000001e-02 6.610000000000001e-02 0.000000000000000e+00
 -9.230000000000001e-02 6.630000000000001e-02 0.000000000000000e+00
 -1.020000000000000e-01 6.600000000000000e-02 0.000000000000000e+00
 -1.037000000000000e-01 6.510000000000001e-02 0.000000000000000e+00
 -1.485000000000000e-01 6.850000000000001e-02 0.000000000000000e+00
 -1.974000000000000e-01 7.430000000000000e-02 0.000000000000000e+00
 -2.460000000000000e-01 8.180000000000001e-02 0.000000000000000e+00
 -2.938000000000000e-01 9.080000000000001e-02 0.000000000000000e+00
 -3.266000000000000e-01 9.860000000000001e-02 0.000000000000000e+00
 -3.548000000000000e-01 1.309000000000000e-01 0.000000000000000e+00
 -4.149000000000000e-01 1.666000000000000e-01 0.000000000000000e+00
 -4.482000000000000e-01 1.779000000000000e-01 0.000000000000000e+00
 -4.801000000000000e-01 1.891000000000000e-01 0.000000000000000e+00
 -5.365000000000001e-01 2.018000000000000e-01 0.000000000000000e+00
 -5.898000000000001e-01 2.102000000000000e-01 0.000000000000000e+00
 -6.433000000000001e-01 2.176000000000000e-01 0.000000000000000e+00
 -6.945000000000000e-01 2.187000000000000e-01 0.000000000000000e+00
 -7.447000000000000e-01 2.266000000000000e-01 0.000000000000000e+00
 -7.972000000000000e-01 2.255000000000000e-01 0.000000000000000e+00
 -8.467000000000001e-01 2.317000000000000e-01 0.000000000000000e+00
 -8.986000000000001e-01 2.313000000000000e-01 0.000000000000000e+00
 -9.485000000000001e-01 2.346000000000000e-01 0.000000000000000e+00
 -1.099700000000000e+00 2.372000000000000e-01 0.000000000000000e+00
 -1.150200000000000e+00 2.359000000000000e-01 0.000000000000000e+00
 -1.200600000000000e+00 2.385000000000000e-01 0.000000000000000e+00
 -1.250400000000000e+00 2.359000000000000e-01 0.000000000000000e+00
 -1.302600000000000e+00 2.385000000000000e-01 0.000000000000000e+00
 -1.350700000000000e+00 2.298000000000000e-01 0.000000000000000e+00
 -1.395200000000000e+00 2.385000000000000e-01 0.000000000000000e+00
 -1.451400000000000e+00 2.348000000000000e-01 0.000000000000000e+00
 -1.503600000000000e+00 2.372000000000000e-01 0.000000000000000e+00
 -1.548700000000000e+00 2.281000000000000e-01 0.000000000000000e+00
 -1.585800000000000e+00 2.359000000000000e-01 0.000000000000000e+00
 -9.720000000000001e-02 -1.291000000000000e-01 0.000000000000000e+00
 -1.447000000000000e-01 -1.331000000000000e-01 0.000000000000000e+00
 -1.908000000000000e-01 -1.398000000000000e-01 0.000000000000000e+00
 -2.387000000000000e-01 -1.492000000000000e-01 0.000000000000000e+00
 -2.636000000000000e-01 -1.595000000000000e-01 0.000000000000000e+00
 -3.015000000000000e-01 -2.014000000000000e-01 0.000000000000000e+00
 -3.371000000000000e-01 -2.325000000000000e-01 0.000000000000000e+00
 -3.624000000000001e-01 -2.480000000000000e-01 0.000000000000000e+00
 -4.307000000000000e-01 -2.775000000000000e-01 0.000000000000000e+00
 -4.930000000000000e-01 -2.945000000000000e-01 0.000000000000000e+00
 -5.553000000000000e-01 -3.073000000000000e-01 0.000000000000000e+00
 -6.708000000000001e-01 -3.237000000000000e-01 0.000000000000000e+00
 -8.336000000000001e-01 -3.367000000000001e-01 0.000000000000000e+00
 -8.872000000000001e-01 -3.374000000000000e-01 0.000000000000000e+00
 -8.921000000000001e-01 -1.550000000000000e-01 0.000000000000000e+00
 -5.875000000000000e-01 -1.216000000000000e-01 0.000000000000000e+00
 -5.369000000000000e-01 -1.115000000000000e-01 0.000000000000000e+00
 -4.885000000000000e-01 -9.790000000000001e-02 0.000000000000000e+00
 -4.464000000000000e-01 -7.920000000000001e-02 0.000000000000000e+00
 -4.329000000000001e-01 -6.690000000000000e-02 0.000000000000000e+00
 -4.372000000000000e-01 -3.990000000000000e-02 0.000000000000000e+00
 -4.373000000000000e-01 -2.970000000000000e-02 0.000000000000000e+00
 -4.257000000000000e-01 -6.100000000000000e-03 0.000000000000000e+00
 -4.079000000000000e-01 7.700000000000000e-03 0.000000000000000e+00
 -3.958000000000000e-01 1.220000000000000e-02 0.000000000000000e+00
 -3.728000000000000e-01 1.780000000000000e-02 0.000000000000000e+00
 -3.239000000000000e-01 2.880000000000000e-02 0.000000000000000e+00
 -2.722000000000000e-01 3.840000000000000e-02 0.000000000000000e+00
 -2.189000000000000e-01 4.740000000000000e-02 0.000000000000000e+00
 -1.643000000000000e-01 5.450000000000001e-02 0.000000000000000e+00
 -9.960000000000001e-02 5.970000000000000e-02 0.000000000000000e+00
 -9.200000000000001e-02 5.900000000000000e-02 0.000000000000000e+00
 -7.080000000000000e-02 5.800000000000000e-02 0.000000000000000e+00
 -4.980000000000000e-02 5.730000000000000e-02 0.000000000000000e+00
 -1.235900000000000e+00 -3.035000000000000e-01 0.000000000000000e+00
 -1.231500000000000e+00 -3.063000000000000e-01 0.000000000000000e+00
 -1.232600000000000e+00 -1.647000000000000e-01 0.000000000000000e+00
 -1.223100000000000e+00 -1.595000000000000e-01 0.000000000000000e+00
 -1.198600000000000e+00 -1.575000000000000e-01 0.000000000000000e+00
 -9.257000000000001e-01 -1.512000000000000e-01 0.000000000000000e+00
 -9.286000000000001e-01 -1.670000000000000e-01 0.000000000000000e+00
 -9.296000000000001e-01 -2.243000000000000e-01 0.000000000000000e+00
 -9.296000000000001e-01 -3.063000000000000e-01 0.000000000000000e+00
 -9.276000000000001e-01 -3.367000000000001e-01 0.000000000000000e+00
 -9.193000000000001e-01 -3.578000000000000e-01 0.000000000000000e+00
 -9.111000000000000e-01 -3.688000000000000e-01 0.000000000000000e+00
 -8.898000000000000e-01 -3.758000000000000e-01 0.000000000000000e+00
 -8.322000000000001e-01 -3.768000000000000e-01 0.000000000000000e+00
 -6.676000000000001e-01 -3.636000000000000e-01 0.000000000000000e+00
 -5.481000000000000e-01 -3.497000000000000e-01 0.000000000000000e+00
 -4.833000000000001e-01 -3.367000000000001e-01 0.000000000000000e+00
 -4.017000000000001e-01 -3.121000000000000e-01 0.000000000000000e+00
 -3.432000000000000e-01 -2.859000000000000e-01 0.000000000000000e+00
 -3.125000000000000e-01 -2.673000000000000e-01 0.000000000000000e+00
 -2.713000000000000e-01 -2.325000000000000e-01 0.000000000000000e+00
 -2.494000000000000e-01 -2.061000000000000e-01 0.000000000000000e+00
 -2.387000000000000e-01 -1.872000000000000e-01 0.000000000000000e+00