DF-ISE text

Info {
  version = 1.1
  type    = boundary
  dimension   = 3
  nb_vertices = 2780
  nb_edges    = 9441
  nb_faces    = 6732
  nb_elements = 76
  nb_regions  = 76
  regions     = [ "region_9_lump_8" "region_8_lump_9" "region_8_lump_10" "region_6_lump_3" "region_15_lump_3" "region_14" "region_8_lump_1" "region_5_lump_4" "region_7_lump_2" "region_16_lump_2" "region_9_lump_9" "region_9_lump_10" "region_8_lump_2" "region_6_lump_4" "region_15_lump_4" "region_9_lump_1" "region_7_lump_3" "region_16_lump_3" "region_9_lump_2" "region_8_lump_3" "region_6_lump_5" "region_15_lump_5" "region_2_lump_1" "region_7_lump_4" "region_16_lump_4" "region_9_lump_3" "region_8_lump_4" "region_6_lump_6" "region_15_lump_6" "region_12_lump_1" "region_3_lump_1" "region_7_lump_5" "region_2_lump_2" "region_16_lump_5" "region_4_lump_1" "region_9_lump_4" "region_8_lump_5" "region_15_lump_7" "region_3_lump_2" "region_1" "region_13_lump_1" "region_10" "region_7_lump_6" "region_2_lump_3" "region_12_lump_2" "region_16_lump_6" "region_9_lump_5" "region_8_lump_6" "region_15_lump_8" "region_3_lump_3" "region_11" "region_5_lump_1" "region_4_lump_2" "region_2_lump_4" "region_12_lump_3" "region_13_lump_2" "substrate" "region_16_lump_7" "region_9_lump_6" "region_8_lump_7" "region_15_lump_9" "region_15_lump_10" "region_6_lump_1" "region_15_lump_1" "region_4_lump_3" "region_5_lump_2" "region_12_lump_4" "region_16_lump_8" "region_9_lump_7" "region_8_lump_8" "region_6_lump_2" "region_15_lump_2" "region_7_lump_1" "region_16_lump_1" "region_4_lump_4" "region_5_lump_3" ]
  materials   = [ Silicide Silicon Silicon Oxide Copper Oxide Silicon PolySilicon Nitride Copper Silicide Silicide Silicon Oxide Copper Silicide Nitride Copper Silicide Silicon Oxide Copper Silicon Nitride Copper Silicide Silicon Oxide Copper Metal Oxide Nitride Silicon Copper Oxide Silicide Silicon Copper Oxide Oxide Metal Oxide Nitride Silicon Metal Copper Silicide Silicon Copper Oxide Oxide PolySilicon Oxide Silicon Metal Metal Silicon Copper Silicide Silicon Copper Copper Oxide Copper Oxide PolySilicon Metal Copper Silicide Silicon Oxide Copper Nitride Copper Oxide PolySilicon ]
}

Data {

  CoordSystem {
    translate = [  0.000000000000000e+00 0.000000000000000e+00 0.000000000000000e+00 ]
    transform = [  1.000000000000000e+00 0.000000000000000e+00 0.000000000000000e+00
 0.000000000000000e+00 1.000000000000000e+00 0.000000000000000e+00
 0.000000000000000e+00 0.000000000000000e+00 1.000000000000000e+00
 ]
  }

  Vertices (2780) {
 2.500000000000000e-02 5.900000000000000e-01 1.059400000000000e+00
 2.500000000000000e-02 4.600000000000000e-01 1.059400000000000e+00
 0.000000000000000e+00 5.900000000000000e-01 1.059400000000000e+00
 0.000000000000000e+00 4.600000000000000e-01 1.059400000000000e+00
 0.000000000000000e+00 4.600000000000000e-01 1.009400000000000e+00
 0.000000000000000e+00 5.900000000000000e-01 1.009400000000001e+00
 0.000000000000000e+00 5.500000000000000e-01 1.009400000000000e+00
 0.000000000000000e+00 5.000000000000000e-01 1.009400000000000e+00
 2.500000000000000e-02 5.900000000000000e-01 1.009400000000000e+00
 2.000000000000000e-02 5.900000000000000e-01 1.009400000000000e+00
 2.000000000000000e-02 4.600000000000000e-01 1.009400000000000e+00
 2.500000000000000e-02 4.600000000000000e-01 1.009400000000000e+00
 1.850000000000000e-01 2.250000000000000e-01 1.059400000000000e+00
 2.100000000000000e-01 2.250000000000000e-01 1.059400000000000e+00
 2.100000000000000e-01 2.250000000000000e-01 1.009400000000000e+00
 1.850000000000000e-01 2.250000000000000e-01 1.009400000000000e+00
 1.850000000000000e-01 1.750000000000000e-01 1.059400000000000e+00
 1.850000000000000e-01 1.750000000000000e-01 1.009400000000000e+00
 2.100000000000000e-01 1.750000000000000e-01 1.059400000000000e+00
 2.100000000000000e-01 1.750000000000000e-01 1.009400000000000e+00
 2.100000000000000e-01 1.800000000000000e-01 1.009400000000000e+00
 2.100000000000000e-01 2.200000000000000e-01 1.009400000000000e+00
 1.237059047744874e-01 3.651703708685546e-01 5.000000000000000e-01
 1.225000000000000e-01 3.656698729810778e-01 5.000000000000000e-01
 1.214644660940673e-01 3.664644660940672e-01 5.000000000000000e-01
 1.206698729810778e-01 3.675000000000000e-01 5.000000000000000e-01
 1.201703708685547e-01 3.687059047744874e-01 5.000000000000000e-01
 1.250000000000000e-01 3.650000000000000e-01 5.000000000000000e-01
 1.200000000000000e-01 3.700000000000000e-01 5.000000000000000e-01
 1.200000000000000e-01 4.100000000000000e-01 5.000000000000000e-01
 1.050000000000000e-01 4.100000000000000e-01 5.000000000000000e-01
 1.050000000000000e-01 3.700000000000000e-01 5.000000000000000e-01
 1.056814834742186e-01 3.648236190979496e-01 5.000000000000000e-01
 1.076794919243112e-01 3.600000000000000e-01 5.000000000000000e-01
 1.108578643762690e-01 3.558578643762690e-01 5.000000000000000e-01
 1.150000000000000e-01 3.526794919243113e-01 5.000000000000000e-01
 1.198236190979496e-01 3.506814834742187e-01 5.000000000000000e-01
 1.250000000000000e-01 3.500000000000000e-01 5.000000000000000e-01
 9.000000000000001e-02 2.200000000000000e-01 5.000000000000000e-01
 9.000000000000001e-02 1.800000000000000e-01 5.000000000000000e-01
 1.050000000000000e-01 1.800000000000000e-01 5.000000000000000e-01
 1.050000000000000e-01 2.200000000000000e-01 5.000000000000000e-01
 1.043185165257814e-01 2.251763809020504e-01 5.000000000000000e-01
 1.023205080756888e-01 2.300000000000000e-01 5.000000000000000e-01
 9.914213562373095e-02 2.341421356237310e-01 5.000000000000000e-01
 9.500000000000001e-02 2.373205080756888e-01 5.000000000000000e-01
 9.017638090205043e-02 2.393185165257814e-01 5.000000000000000e-01
 8.500000000000001e-02 2.400000000000000e-01 5.000000000000000e-01
 8.500000000000001e-02 2.250000000000000e-01 5.000000000000000e-01
 8.629409522551261e-02 2.248296291314454e-01 5.000000000000000e-01
 8.750000000000001e-02 2.243301270189222e-01 5.000000000000000e-01
 8.853553390593275e-02 2.235355339059327e-01 5.000000000000000e-01
 8.933012701892219e-02 2.225000000000000e-01 5.000000000000000e-01
 8.982962913144533e-02 2.212940952255126e-01 5.000000000000000e-01
 0.000000000000000e+00 5.900000000000000e-01 5.000000000000000e-01
 0.000000000000000e+00 0.000000000000000e+00 5.000000000000000e-01
 0.000000000000000e+00 5.900000000000000e-01 0.000000000000000e+00
 0.000000000000000e+00 0.000000000000000e+00 0.000000000000000e+00
 2.100000000000000e-01 5.900000000000000e-01 5.000000000000000e-01
 2.100000000000000e-01 5.900000000000000e-01 0.000000000000000e+00
 2.100000000000000e-01 0.000000000000000e+00 5.000000000000000e-01
 2.100000000000000e-01 0.000000000000000e+00 0.000000000000000e+00
 1.950000000000000e-01 5.900000000000000e-01 1.059400000000000e+00
 1.950000000000000e-01 5.900000000000000e-01 1.009400000000000e+00
 1.900000000000000e-01 5.900000000000000e-01 1.009400000000000e+00
 1.500000000000000e-01 5.900000000000000e-01 1.009400000000000e+00
 1.450000000000000e-01 5.900000000000000e-01 1.009400000000000e+00
 1.450000000000000e-01 5.900000000000000e-01 1.059400000000000e+00
 1.450000000000000e-01 5.649999999999999e-01 1.059400000000000e+00
 1.950000000000000e-01 5.649999999999999e-01 1.059400000000000e+00
 1.450000000000000e-01 5.649999999999999e-01 1.009400000000000e+00
 1.950000000000000e-01 5.649999999999999e-01 1.009400000000000e+00
 1.850000000000000e-01 1.300000000000000e-01 1.059400000000000e+00
 2.100000000000000e-01 1.300000000000000e-01 1.059400000000000e+00
 2.100000000000000e-01 1.300000000000000e-01 1.009400000000000e+00
 1.900000000000000e-01 1.300000000000000e-01 1.009400000000000e+00
 1.850000000000000e-01 1.300000000000000e-01 1.009400000000000e+00
 1.850000000000000e-01 0.000000000000000e+00 1.059400000000000e+00
 1.850000000000000e-01 0.000000000000000e+00 1.009400000000000e+00
 2.100000000000000e-01 0.000000000000000e+00 1.059400000000000e+00
 2.100000000000000e-01 0.000000000000000e+00 1.009400000000001e+00
 2.100000000000000e-01 3.999999999999998e-02 1.009400000000000e+00
 2.100000000000000e-01 9.000000000000002e-02 1.009400000000000e+00
 1.900000000000000e-01 0.000000000000000e+00 1.009400000000000e+00
 0.000000000000000e+00 4.150000000000000e-01 1.059400000000000e+00
 2.500000000000000e-02 4.150000000000000e-01 1.059400000000000e+00
 0.000000000000000e+00 3.400000000000000e-01 1.059400000000000e+00
 2.500000000000000e-02 3.400000000000000e-01 1.059400000000000e+00
 0.000000000000000e+00 4.150000000000000e-01 1.009400000000000e+00
 0.000000000000000e+00 3.850000000000000e-01 1.009400000000000e+00
 0.000000000000000e+00 3.450000000000000e-01 1.009400000000000e+00
 0.000000000000000e+00 3.400000000000000e-01 1.009400000000000e+00
 2.500000000000000e-02 3.400000000000000e-01 1.009400000000000e+00
 2.500000000000000e-02 4.150000000000000e-01 1.009400000000000e+00
 6.500000000000000e-02 2.500000000000000e-02 1.059400000000000e+00
 6.500000000000000e-02 0.000000000000000e+00 1.059400000000000e+00
 6.500000000000000e-02 0.000000000000000e+00 1.009400000000000e+00
 6.500000000000000e-02 2.500000000000002e-02 1.009400000000000e+00
 1.500000000000000e-02 2.500000000000000e-02 1.059400000000000e+00
 1.500000000000000e-02 2.500000000000002e-02 1.009400000000000e+00
 1.500000000000001e-02 0.000000000000000e+00 1.059400000000000e+00
 1.500000000000001e-02 0.000000000000000e+00 1.009400000000000e+00
 2.000000000000002e-02 0.000000000000000e+00 1.009400000000000e+00
 6.000000000000000e-02 0.000000000000000e+00 1.009400000000000e+00
 0.000000000000000e+00 1.350000000000000e-01 1.059400000000000e+00
 2.500000000000000e-02 1.350000000000000e-01 1.059400000000000e+00
 0.000000000000000e+00 8.500000000000001e-02 1.059400000000000e+00
 2.500000000000000e-02 8.500000000000001e-02 1.059400000000000e+00
 0.000000000000000e+00 8.499999999999996e-02 1.009400000000000e+00
 0.000000000000000e+00 1.350000000000000e-01 1.009400000000000e+00
 0.000000000000000e+00 1.300000000000000e-01 1.009400000000000e+00
 0.000000000000000e+00 9.000000000000000e-02 1.009400000000000e+00
 2.500000000000000e-02 8.499999999999996e-02 1.009400000000000e+00
 2.500000000000000e-02 1.350000000000000e-01 1.009400000000000e+00
 8.500000000000001e-02 5.000000000000000e-01 9.094000000000000e-01
 8.500000000000001e-02 4.600000000000000e-01 9.094000000000000e-01
 1.250000000000000e-01 4.600000000000000e-01 9.094000000000000e-01
 1.250000000000000e-01 5.000000000000000e-01 9.094000000000000e-01
 8.499999999999999e-02 0.000000000000000e+00 8.029999999999999e-01
 8.500000000000001e-02 0.000000000000000e+00 8.099999999999999e-01
 2.100000000000000e-01 0.000000000000000e+00 8.029999999999999e-01
 2.100000000000000e-01 0.000000000000000e+00 8.099999999999999e-01
 1.900000000000000e-01 0.000000000000000e+00 8.099999999999999e-01
 1.700000000000000e-01 0.000000000000000e+00 8.099999999999999e-01
 1.450000000000000e-01 0.000000000000000e+00 8.099999999999999e-01
 1.250000000000000e-01 0.000000000000000e+00 8.099999999999999e-01
 2.100000000000000e-01 1.300000000000000e-01 8.099999999999999e-01
 2.100000000000000e-01 1.300000000000000e-01 8.029999999999999e-01
 0.000000000000000e+00 6.500000000000000e-02 8.099999999999999e-01
 0.000000000000000e+00 6.500000000000000e-02 8.029999999999999e-01
 0.000000000000000e+00 1.300000000000000e-01 8.099999999999999e-01
 0.000000000000000e+00 1.300000000000000e-01 8.029999999999999e-01
 1.198236190979496e-01 3.506814834742186e-01 8.029999999999999e-01
 1.150000000000000e-01 3.526794919243113e-01 8.029999999999999e-01
 1.108578643762690e-01 3.558578643762690e-01 8.029999999999999e-01
 1.076794919243112e-01 3.600000000000000e-01 8.029999999999999e-01
 1.056814834742186e-01 3.648236190979496e-01 8.029999999999999e-01
 1.250000000000000e-01 3.500000000000000e-01 8.029999999999999e-01
 1.050000000000000e-01 3.700000000000000e-01 8.029999999999999e-01
 1.050000000000000e-01 4.100000000000000e-01 8.029999999999999e-01
 1.250000000000000e-01 4.100000000000000e-01 8.029999999999999e-01
 0.000000000000000e+00 3.450000000000000e-01 8.099999999999999e-01
 0.000000000000000e+00 3.450000000000000e-01 8.029999999999999e-01
 0.000000000000000e+00 4.100000000000000e-01 8.099999999999999e-01
 0.000000000000000e+00 4.100000000000000e-01 8.029999999999999e-01
 9.017638090205042e-02 2.393185165257814e-01 8.029999999999999e-01
 9.500000000000001e-02 2.373205080756888e-01 8.029999999999999e-01
 9.914213562373095e-02 2.341421356237310e-01 8.029999999999999e-01
 1.023205080756888e-01 2.300000000000000e-01 8.029999999999999e-01
 1.043185165257814e-01 2.251763809020504e-01 8.029999999999999e-01
 8.500000000000001e-02 2.400000000000000e-01 8.029999999999999e-01
 1.050000000000000e-01 2.200000000000000e-01 8.029999999999999e-01
 1.050000000000000e-01 1.800000000000000e-01 8.029999999999999e-01
 8.500000000000001e-02 1.800000000000000e-01 8.029999999999999e-01
 2.100000000000000e-01 1.800000000000000e-01 8.029999999999999e-01
 2.100000000000000e-01 1.800000000000000e-01 8.099999999999999e-01
 2.100000000000000e-01 2.450000000000000e-01 8.029999999999999e-01
 2.100000000000000e-01 2.450000000000000e-01 8.099999999999999e-01
 1.250000000000000e-01 1.800000000000000e-01 8.713999999999998e-01
 1.250000000000000e-01 1.800000000000000e-01 8.470000000000000e-01
 1.250000000000000e-01 2.200000000000000e-01 8.713999999999998e-01
 1.250000000000000e-01 2.200000000000000e-01 8.470000000000000e-01
 1.250000000000000e-01 9.000000000000000e-02 8.470000000000000e-01
 1.250000000000000e-01 9.000000000000000e-02 8.713999999999998e-01
 1.250000000000000e-01 1.300000000000000e-01 8.713999999999998e-01
 1.250000000000000e-01 1.300000000000000e-01 8.470000000000000e-01
 1.254806815456227e-01 0.000000000000000e+00 8.757584638436728e-01
 1.268996207076605e-01 0.000000000000000e+00 8.799074243736541e-01
 1.291886116991581e-01 0.000000000000000e+00 8.836474487139158e-01
 1.322376269473446e-01 0.000000000000000e+00 8.867987607964034e-01
 1.359001059160075e-01 0.000000000000000e+00 8.892098828648622e-01
 1.250000000000000e-01 0.000000000000000e+00 8.713999999999998e-01
 1.400000000000000e-01 0.000000000000000e+00 8.907649167310370e-01
 1.250000000000000e-01 0.000000000000000e+00 8.470000000000000e-01
 1.250000000000000e-01 0.000000000000000e+00 8.300000000000000e-01
 1.250000000000000e-01 0.000000000000000e+00 8.149999999999999e-01
 1.400000000000000e-01 0.000000000000000e+00 8.149999999999999e-01
 1.790998940839925e-01 0.000000000000000e+00 8.892098828648622e-01
 1.827623730526554e-01 0.000000000000000e+00 8.867987607964034e-01
 1.858113883008419e-01 0.000000000000000e+00 8.836474487139158e-01
 1.881003792923395e-01 0.000000000000000e+00 8.799074243736541e-01
 1.895193184543773e-01 0.000000000000000e+00 8.757584638436728e-01
 1.750000000000000e-01 0.000000000000000e+00 8.907649167310370e-01
 1.900000000000000e-01 0.000000000000000e+00 8.713999999999998e-01
 1.750000000000000e-01 0.000000000000000e+00 8.149999999999999e-01
 1.900000000000000e-01 0.000000000000000e+00 8.149999999999999e-01
 1.900000000000000e-01 0.000000000000000e+00 8.300000000000000e-01
 1.900000000000000e-01 0.000000000000000e+00 8.470000000000000e-01
 8.500000000000001e-02 9.000000000000000e-02 8.713999999999998e-01
 8.500000000000001e-02 9.000000000000000e-02 8.470000000000000e-01
 8.499999999999999e-02 1.300000000000000e-01 8.469999999999999e-01
 8.500000000000001e-02 1.300000000000000e-01 8.713999999999998e-01
 0.000000000000000e+00 2.499999999999995e-02 8.846287565553226e-01
 0.000000000000000e+00 0.000000000000000e+00 8.846287565553226e-01
 0.000000000000000e+00 3.777799760647732e-02 8.748238541395420e-01
 0.000000000000000e+00 3.645643923738970e-02 8.780143782776612e-01
 0.000000000000000e+00 3.435414346693495e-02 8.807541434669346e-01
 0.000000000000000e+00 3.161437827766155e-02 8.828564392373894e-01
 0.000000000000000e+00 2.842385413954241e-02 8.841779976064771e-01
 0.000000000000000e+00 3.822875655532297e-02 8.713999999999995e-01
 0.000000000000000e+00 3.822875655532296e-02 8.150000000000001e-01
 0.000000000000000e+00 0.000000000000000e+00 8.149999999999999e-01
 2.902618095346069e-03 0.000000000000000e+00 8.873264983927085e-01
 6.280149246361212e-03 0.000000000000000e+00 8.893990056068178e-01
 1.000000000000001e-02 0.000000000000000e+00 8.907649167310370e-01
 1.000000000000000e-02 0.000000000000000e+00 8.149999999999999e-01
 7.409989408399249e-02 0.000000000000000e+00 8.892098828648622e-01
 7.776237305265536e-02 0.000000000000000e+00 8.867987607964034e-01
 8.081138830084190e-02 0.000000000000000e+00 8.836474487139158e-01
 8.310037929233954e-02 0.000000000000000e+00 8.799074243736541e-01
 8.451931845437732e-02 0.000000000000000e+00 8.757584638436728e-01
 7.000000000000002e-02 0.000000000000000e+00 8.907649167310370e-01
 8.500000000000001e-02 0.000000000000000e+00 8.713999999999998e-01
 7.000000000000001e-02 0.000000000000000e+00 8.149999999999999e-01
 8.500000000000001e-02 0.000000000000000e+00 8.149999999999999e-01
 8.500000000000001e-02 0.000000000000000e+00 8.300000000000000e-01
 8.500000000000001e-02 0.000000000000000e+00 8.470000000000000e-01
 1.250000000000000e-01 5.000000000000000e-01 8.713999999999998e-01
 1.250000000000000e-01 5.000000000000000e-01 8.470000000000000e-01
 1.250000000000000e-01 4.600000000000000e-01 8.469999999999999e-01
 1.250000000000000e-01 4.600000000000000e-01 8.713999999999998e-01
 2.100000000000000e-01 5.522220023935226e-01 8.748238541395420e-01
 2.100000000000000e-01 5.535435607626102e-01 8.780143782776612e-01
 2.100000000000000e-01 5.556458565330650e-01 8.807541434669346e-01
 2.100000000000000e-01 5.583856217223384e-01 8.828564392373894e-01
 2.100000000000000e-01 5.615761458604575e-01 8.841779976064771e-01
 2.100000000000000e-01 5.517712434446770e-01 8.713999999999995e-01
 2.100000000000000e-01 5.649999999999999e-01 8.846287565553226e-01
 2.100000000000000e-01 5.517712434446770e-01 8.150000000000001e-01
 2.100000000000000e-01 5.900000000000000e-01 8.149999999999999e-01
 2.100000000000000e-01 5.900000000000000e-01 8.846287565553226e-01
 1.359001059160075e-01 5.900000000000000e-01 8.892098828648622e-01
 1.322376269473446e-01 5.900000000000000e-01 8.867987607964034e-01
 1.291886116991581e-01 5.900000000000000e-01 8.836474487139158e-01
 1.268996207076605e-01 5.900000000000000e-01 8.799074243736541e-01
 1.254806815456227e-01 5.900000000000000e-01 8.757584638436728e-01
 1.400000000000000e-01 5.900000000000000e-01 8.907649167310370e-01
 1.250000000000000e-01 5.900000000000000e-01 8.713999999999998e-01
 1.400000000000000e-01 5.900000000000000e-01 8.149999999999999e-01
 1.250000000000000e-01 5.900000000000000e-01 8.149999999999999e-01
 1.250000000000000e-01 5.900000000000000e-01 8.300000000000000e-01
 1.250000000000000e-01 5.900000000000000e-01 8.470000000000000e-01
 2.070973819046540e-01 5.900000000000000e-01 8.873264983927085e-01
 2.037198507536388e-01 5.900000000000000e-01 8.893990056068178e-01
 2.000000000000000e-01 5.900000000000000e-01 8.907649167310370e-01
 2.000000000000000e-01 5.900000000000000e-01 8.149999999999999e-01
 1.050000000000000e-01 1.800000000000000e-01 8.470000000000001e-01
 9.000000000000001e-02 1.800000000000000e-01 8.469999999999999e-01
 9.000000000000004e-02 1.800000000000000e-01 8.907649167310370e-01
 9.409989408399247e-02 1.799999999999999e-01 8.892098828648621e-01
 9.776237305265534e-02 1.799999999999999e-01 8.867987607964034e-01
 1.008113883008419e-01 1.799999999999999e-01 8.836474487139157e-01
 1.031003792923395e-01 1.799999999999999e-01 8.799074243736541e-01
 1.045193184543773e-01 1.799999999999999e-01 8.757584638436728e-01
 1.050000000000000e-01 1.800000000000000e-01 8.713999999999998e-01
 3.090010591600753e-02 5.900000000000000e-01 8.892098828648622e-01
 2.723762694734465e-02 5.900000000000000e-01 8.867987607964034e-01
 2.418861169915812e-02 5.900000000000000e-01 8.836474487139158e-01
 2.189962070766048e-02 5.900000000000000e-01 8.799074243736541e-01
 2.048068154562268e-02 5.900000000000000e-01 8.757584638436728e-01
 3.500000000000000e-02 5.899999999999999e-01 8.907649167310370e-01
 2.000000000000000e-02 5.900000000000000e-01 8.713999999999998e-01
 3.500000000000000e-02 5.900000000000000e-01 8.149999999999999e-01
 2.000000000000000e-02 5.900000000000000e-01 8.149999999999999e-01
 2.000000000000000e-02 5.900000000000000e-01 8.300000000000000e-01
 2.000000000000000e-02 5.900000000000000e-01 8.470000000000000e-01
 8.500000000000001e-02 1.800000000000000e-01 8.470000000000000e-01
 8.500000000000001e-02 2.200000000000000e-01 8.470000000000000e-01
 8.500000000000001e-02 2.200000000000000e-01 9.013999999999999e-01
 8.500000000000001e-02 1.800000000000000e-01 9.013999999999999e-01
 6.500000000000000e-02 2.200000000000000e-01 9.013999999999999e-01
 4.000000000000001e-02 2.200000000000000e-01 9.013999999999999e-01
 4.000000000000001e-02 1.800000000000000e-01 9.013999999999999e-01
 6.500000000000000e-02 5.900000000000000e-01 9.013999999999999e-01
 4.000000000000001e-02 5.900000000000000e-01 9.013999999999999e-01
 6.500000000000000e-02 5.900000000000000e-01 8.113999999999999e-01
 4.000000000000000e-02 5.900000000000000e-01 8.113999999999999e-01
 6.000000000000001e-02 0.000000000000000e+00 9.013999999999999e-01
 6.500000000000000e-02 0.000000000000000e+00 9.013999999999999e-01
 1.999999999999999e-02 0.000000000000000e+00 9.013999999999999e-01
 1.500000000000000e-02 0.000000000000000e+00 9.013999999999999e-01
 1.500000000000001e-02 0.000000000000000e+00 8.113999999999999e-01
 6.500000000000000e-02 0.000000000000000e+00 8.113999999999999e-01
 1.450000000000000e-01 0.000000000000000e+00 9.013999999999999e-01
 1.700000000000000e-01 0.000000000000000e+00 9.013999999999999e-01
 1.450000000000000e-01 0.000000000000000e+00 8.113999999999999e-01
 1.700000000000000e-01 0.000000000000000e+00 8.113999999999999e-01
 1.450000000000000e-01 5.900000000000000e-01 8.099999999999999e-01
 1.450000000000000e-01 5.900000000000000e-01 8.113999999999999e-01
 1.950000000000000e-01 5.900000000000000e-01 8.113999999999999e-01
 1.950000000000000e-01 5.900000000000000e-01 8.099999999999999e-01
 6.500000000000000e-02 3.450000000000000e-01 8.099999999999999e-01
 4.000000000000000e-02 3.450000000000000e-01 8.099999999999999e-01
 4.000000000000001e-02 4.099999999999999e-01 8.099999999999999e-01
 6.500000000000000e-02 4.099999999999999e-01 8.099999999999999e-01
 6.500000000000000e-02 2.200000000000000e-01 8.113999999999999e-01
 4.000000000000001e-02 1.800000000000000e-01 8.113999999999999e-01
 8.500000000000001e-02 1.800000000000000e-01 8.113999999999999e-01
 8.500000000000001e-02 2.200000000000000e-01 8.113999999999999e-01
 6.500000000000000e-02 5.900000000000000e-01 8.099999999999999e-01
 4.000000000000001e-02 5.900000000000000e-01 8.099999999999999e-01
 1.450000000000000e-01 1.300000000000000e-01 8.099999999999999e-01
 1.700000000000000e-01 1.300000000000000e-01 8.099999999999999e-01
 1.450000000000000e-01 2.450000000000000e-01 8.099999999999999e-01
 1.700000000000000e-01 2.450000000000000e-01 8.099999999999999e-01
 1.700000000000000e-01 1.800000000000000e-01 8.099999999999999e-01
 1.450000000000000e-01 1.800000000000000e-01 8.099999999999999e-01
 1.450000000000000e-01 3.700000000000000e-01 8.113999999999999e-01
 1.700000000000000e-01 4.100000000000000e-01 8.113999999999999e-01
 1.250000000000000e-01 4.100000000000000e-01 8.113999999999999e-01
 1.250000000000000e-01 3.700000000000000e-01 8.113999999999999e-01
 1.250000000000000e-01 1.300000000000000e-01 9.013999999999999e-01
 8.500000000000001e-02 1.300000000000000e-01 9.013999999999999e-01
 8.500000000000002e-02 4.600000000000000e-01 8.470000000000000e-01
 8.500000000000001e-02 4.600000000000000e-01 8.713999999999998e-01
 8.500000000000001e-02 4.600000000000000e-01 9.013999999999999e-01
 1.250000000000000e-01 4.600000000000000e-01 9.013999999999999e-01
 9.017638090205042e-02 1.606814834742186e-01 8.149999999999999e-01
 9.500000000000001e-02 1.626794919243112e-01 8.149999999999999e-01
 9.914213562373095e-02 1.658578643762690e-01 8.149999999999999e-01
 1.023205080756888e-01 1.700000000000000e-01 8.149999999999999e-01
 1.043185165257814e-01 1.748236190979496e-01 8.149999999999999e-01
 8.500000000000001e-02 1.600000000000000e-01 8.149999999999999e-01
 1.050000000000000e-01 1.800000000000000e-01 8.149999999999999e-01
 8.500000000000001e-02 1.600000000000000e-01 8.713999999999998e-01
 9.017638090205041e-02 1.606814834742186e-01 8.713999999999998e-01
 9.500000000000000e-02 1.626794919243112e-01 8.713999999999998e-01
 9.914213562373095e-02 1.658578643762690e-01 8.713999999999998e-01
 1.023205080756888e-01 1.700000000000000e-01 8.713999999999998e-01
 1.043185165257814e-01 1.748236190979496e-01 8.713999999999998e-01
 1.050000000000000e-01 1.800000000000000e-01 8.300000000000000e-01
 4.000000000000000e-02 1.600000000000000e-01 8.149999999999999e-01
 3.999999999999999e-02 1.600000000000000e-01 8.713999999999998e-01
 2.068148347421864e-02 1.748236190979496e-01 8.149999999999999e-01
 2.267949192431123e-02 1.700000000000000e-01 8.149999999999999e-01
 2.585786437626905e-02 1.658578643762691e-01 8.149999999999999e-01
 3.000000000000000e-02 1.626794919243112e-01 8.149999999999999e-01
 3.482361909794959e-02 1.606814834742186e-01 8.149999999999999e-01
 2.000000000000000e-02 1.800000000000000e-01 8.149999999999999e-01
 2.000000000000000e-02 1.800000000000000e-01 8.713999999999998e-01
 3.482361909794958e-02 1.606814834742187e-01 8.713999999999998e-01
 3.000000000000000e-02 1.626794919243112e-01 8.713999999999998e-01
 2.585786437626905e-02 1.658578643762691e-01 8.713999999999998e-01
 2.267949192431123e-02 1.700000000000000e-01 8.713999999999998e-01
 2.068148347421865e-02 1.748236190979496e-01 8.713999999999998e-01
 1.079138568567153e-02 4.455217546855668e-02 8.149999999999999e-01
 6.771243444677046e-03 4.322875655532295e-02 8.149999999999999e-01
 3.119605108557431e-03 4.108900920577104e-02 8.149999999999999e-01
 1.500000000000000e-02 4.500000000000000e-02 8.149999999999999e-01
 1.500000000000000e-02 4.500000000000000e-02 8.713999999999998e-01
 3.119605108557435e-03 4.108900920577104e-02 8.713999999999998e-01
 6.771243444677053e-03 4.322875655532295e-02 8.713999999999998e-01
 1.079138568567154e-02 4.455217546855668e-02 8.713999999999998e-01
 2.000000000000000e-02 4.500000000000000e-02 8.149999999999999e-01
 2.000000000000000e-02 4.500000000000000e-02 8.713999999999998e-01
 3.482361909794959e-02 1.493185165257814e-01 8.149999999999999e-01
 3.000000000000000e-02 1.473205080756888e-01 8.149999999999999e-01
 2.585786437626905e-02 1.441421356237309e-01 8.149999999999999e-01
 2.267949192431123e-02 1.400000000000000e-01 8.149999999999999e-01
 2.068148347421864e-02 1.351763809020504e-01 8.149999999999999e-01
 4.000000000000000e-02 1.500000000000000e-01 8.149999999999999e-01
 2.000000000000000e-02 1.300000000000000e-01 8.149999999999999e-01
 4.000000000000000e-02 1.500000000000000e-01 8.713999999999998e-01
 3.482361909794959e-02 1.493185165257813e-01 8.713999999999998e-01
 3.000000000000001e-02 1.473205080756888e-01 8.713999999999998e-01
 2.585786437626906e-02 1.441421356237310e-01 8.713999999999998e-01
 2.267949192431124e-02 1.400000000000000e-01 8.713999999999998e-01
 2.068148347421865e-02 1.351763809020504e-01 8.713999999999998e-01
 2.000000000000000e-02 1.300000000000000e-01 8.713999999999998e-01
 2.000000000000000e-02 1.300000000000000e-01 8.469999999999999e-01
 2.000000000000000e-02 1.300000000000000e-01 8.299999999999998e-01
 6.500000000000000e-02 1.500000000000000e-01 8.149999999999999e-01
 6.500000000000000e-02 1.500000000000000e-01 8.713999999999998e-01
 1.250000000000000e-01 1.800000000000000e-01 8.149999999999999e-01
 1.250000000000000e-01 1.300000000000000e-01 8.149999999999999e-01
 1.250000000000000e-01 1.800000000000000e-01 8.300000000000000e-01
 1.250000000000000e-01 1.300000000000000e-01 8.300000000000000e-01
 1.992086143143285e-01 5.454478245314432e-01 8.149999999999999e-01
 2.032287565553230e-01 5.467712434446770e-01 8.149999999999999e-01
 2.068803948914426e-01 5.489109907942290e-01 8.149999999999999e-01
 1.950000000000000e-01 5.449999999999999e-01 8.149999999999999e-01
 1.950000000000000e-01 5.449999999999999e-01 8.713999999999998e-01
 2.068803948914426e-01 5.489109907942290e-01 8.713999999999998e-01
 2.032287565553229e-01 5.467712434446770e-01 8.713999999999998e-01
 1.992086143143285e-01 5.454478245314434e-01 8.713999999999998e-01
 1.900000000000000e-01 5.449999999999999e-01 8.149999999999999e-01
 1.900000000000000e-01 5.449999999999999e-01 8.713999999999998e-01
 1.751763809020504e-01 4.406814834742187e-01 8.149999999999999e-01
 1.800000000000000e-01 4.426794919243113e-01 8.149999999999999e-01
 1.841421356237310e-01 4.458578643762691e-01 8.149999999999999e-01
 1.873205080756888e-01 4.500000000000000e-01 8.149999999999999e-01
 1.893185165257814e-01 4.548236190979496e-01 8.149999999999999e-01
 1.700000000000000e-01 4.400000000000000e-01 8.149999999999999e-01
 1.900000000000000e-01 4.600000000000000e-01 8.149999999999999e-01
 1.700000000000000e-01 4.400000000000000e-01 8.713999999999998e-01
 1.893185165257814e-01 4.548236190979495e-01 8.713999999999998e-01
 1.873205080756888e-01 4.500000000000000e-01 8.713999999999998e-01
 1.841421356237310e-01 4.458578643762691e-01 8.713999999999998e-01
 1.800000000000000e-01 4.426794919243113e-01 8.713999999999998e-01
 1.751763809020504e-01 4.406814834742186e-01 8.713999999999998e-01
 1.900000000000000e-01 4.600000000000000e-01 8.713999999999998e-01
 1.900000000000000e-01 4.600000000000000e-01 8.469999999999999e-01
 1.900000000000000e-01 4.600000000000000e-01 8.299999999999998e-01
 1.450000000000000e-01 4.400000000000000e-01 8.149999999999999e-01
 1.450000000000000e-01 4.400000000000000e-01 8.713999999999998e-01
 8.431851652578137e-02 1.351763809020504e-01 8.149999999999999e-01
 8.232050807568876e-02 1.400000000000000e-01 8.149999999999999e-01
 7.914213562373096e-02 1.441421356237310e-01 8.149999999999999e-01
 7.500000000000000e-02 1.473205080756888e-01 8.149999999999999e-01
 7.017638090205042e-02 1.493185165257814e-01 8.149999999999999e-01