DF-ISE text

# written by anetch
Info {
version     =  1
type        = boundary
dimension   =  3
nb_vertices = 352
nb_edges    = 941
nb_faces    = 596
nb_elements = 10
nb_regions  = 10
regions     = [ "Oxide_pattern0" "Silicon_pattern3" "Si1" "Silicon_pattern1" "Silicon_pattern2" "Silicon_pattern0" "PolySilicon_pattern0" "PolySilicon_pattern1" "PolySilicon_pattern2" "PolySilicon_pattern3" ]
materials   = [ Oxide Silicon Silicon Silicon Silicon Silicon PolySilicon PolySilicon PolySilicon PolySilicon ]
}
Data {
CoordSystem {
translate = [  0  0  0 ]
transform = [  1  0  0  0  1  0  0  0  1 ]
 }
Vertices ( 352) {
0.25 0.5 0.349
0.25 0.49993 0.349
0.515 0.5 0.349
0.25 0.5 0
0.25 0.51 0
0.235 0.51 0
0.235 0.51 0.349
0.265 0.15 0
0.265 0.14 0
0.175 0.14 0
0.7150000000000001 0.15 0.349
0.775 0.14 0.349
0.7150000000000001 0.14 0.349
0.7150000000000001 0.14 0
0.365 0.15 0.349
0.355 0.14 0.349
0.365 0.14 0.349
0.355 0.14 0
0.175 0.5 0
0.235 0.5 0.349
0.235 0.5 0
0.4350000000000001 0.28 0
0.425 0.28 0.349
0.4350000000000001 0.28 0.349
0.25 0.475 0.349
0.235 0.475 0.349
0.235 0.355 0.349
0.7150000000000001 0.15 0
0.7000000000000002 0.14 0
0.5149999999999999 0.51 0.349
0.515 0.51 0
0.5850000000000001 0.51 0.349
0.265 0.33 0.349
0.25 0.355 0.349
0.36 0.36 0.349
0.775 0.15 0
0.775 0.14 0
0.4299999999999999 0.14 0
0.43 0.14 0.349
0.365 0.14 0
0.51 0.36 0
0.52 0.36 0
0.52 0.41867 0
0.51 0.36 0.349
0.775 0.22899 0
0.8700000000000001 0.22899 0
0.775 0.15 0.349
0.51 0.28 0.349
0.51 0.325 0
0.6850000000000002 0.5 0
0.6850000000000002 0.51 0
0.775 0.51 0
0.6850000000000002 0.51 0.349
0.8700000000000001 0.295 0.349
0.8700000000000001 0.32 0
0.775 0.32 0
0.4350000000000001 0.36 0.349
0.235 0.475 0
0.235 0.355 0
0.25 0.355 0
0.8700000000000001 0.14 0.349
0.355 0.15 0.349
0.265 0.14 0.349
0.5800000000000002 0.28 0
0.51 0.28 0
0.36 0.28 0
0.36 0.325 0
0.265 0.325 0
0.36 0.28 0.349
0.5850000000000001 0.5 0.349
0.5750000000000002 0.475 0.349
0.5750000000000002 0.36 0.349
0.5750000000000002 0.41867 0
0.5800000000000002 0.36 0.349
0.08 0.14 0.349
0.175 0.15 0.349
0.08 0.3550000000000001 0.349
0.08 0.22899 0
0.265 0.15 0.349
0.8700000000000001 0.51 0
0.775 0.5 0
0.8700000000000001 0.4864100000000001 0.349
0.5800000000000002 0.36 0
0.5800000000000002 0.28 0.349
0.5850000000000001 0.5 0
0.5850000000000001 0.51 0
0.81964 0.51 0.349
0.775 0.5 0.349
0.775 0.51 0.349
0.5850000000000001 0.475 0
0.5850000000000001 0.475 0.349
0.08 0.51 0.349
0.175 0.5 0.349
0.175 0.51 0.349
0.08 0.51 0
0.775 0.4995000000000001 0.349
0.175 0.51 0
0.8700000000000001 0.14 0
0.355 0.15 0
0.365 0.15 0
0.08 0.14 0
0.175 0.15 0
0.43 0.17 0.349
0.7000000000000002 0.15 0.349
0.7000000000000002 0.15 0
0.7000000000000002 0.175 0
0.25 0.51 0.349
0.6850000000000002 0.32 0.349
0.6850000000000002 0.49953 0.349
0.6850000000000002 0.33671 0
0.7000000000000002 0.32 0
0.6850000000000002 0.32 0
0.515 0.5 0
0.265 0.33 0
0.5750000000000002 0.36 0
0.175 0.14 0.349
0.475 0.325 0
0.7000000000000002 0.295 0
0.43 0.15 0.349
0.7000000000000002 0.175 0.349
0.355 0.17 0
0.355 0.15006 0.349
0.355 0.17 0.349
0.175 0.355 0
0.08 0.355 0
0.51 0.35778 0
0.25 0.33 0
0.25 0.33 0.349
0.4350000000000001 0.36 0
0.365 0.17 0
0.365 0.28 0
0.365 0.28 0.349
0.365 0.17 0.349
0.36 0.36 0
0.775 0.295 0.349
0.43 0.15 0
0.425 0.17 0
0.43 0.17 0
0.7150000000000001 0.175 0
0.7150000000000001 0.295 0
0.7150000000000001 0.295 0.349
0.7000000000000002 0.295 0.349
0.175 0.3550000000000001 0.349
0.7150000000000001 0.175 0.349
0.425 0.28 0
0.7000000000000002 0.14 0.349
0.6850000000000002 0.5 0.349
0.515 0.475 0
0.175 0.22899 0
0.52 0.36 0.349
0.52 0.475 0.349
0.515 0.475 0.349
0.8700000000000001 0.51 0.349
0.52 0.475 0
0.5750000000000002 0.475 0
0.7000000000000002 0.32 0.349
0.25 0.475 0
0.425 0.17 0.349
0.8700000000000001 0.14 -0.5
0.8700000000000001 0.51 -0.5
0.08 0.14 -0.5
0.08 0.51 -0.5
0.08 0.37181 0.464
0.128445 0.383726 0.464
0.189605 0.389023 0.464
0.242787 0.389023 0.464
0.272038 0.396967 0.464
0.274697 0.424772 0.464
0.23481 0.432717 0.464
0.176309 0.435365 0.464
0.125786 0.434041 0.464
0.08 0.436689 0.464
0.125 0.22 0.464
0.14573 0.212923 0.464
0.253424 0.210274 0.464
0.427596 0.20895 0.464
0.502051 0.20233 0.464
0.559222 0.190414 0.464
0.584484 0.207626 0.464
0.584484 0.230135 0.464
0.563211 0.249996 0.464
0.547256 0.253968 0.464
0.488756 0.242052 0.464
0.383721 0.240728 0.464
0.277356 0.239404 0.464
0.193594 0.236756 0.464
0.128445 0.231459 0.464
0.358459 0.403587 0.464
0.371755 0.386375 0.464
0.394357 0.382402 0.464
0.436903 0.389023 0.464
0.468812 0.395643 0.464
0.680212 0.395643 0.464
0.790566 0.398291 0.464
0.82 0.404911 0.464
0.82 0.419476 0.464
0.740043 0.426096 0.464
0.587143 0.426096 0.464
0.472801 0.426096 0.464
0.434244 0.430069 0.464
0.398346 0.443309 0.464
0.370425 0.441985 0.464
0.357129 0.424772 0.464
0.665587 0.219543 0.464
0.674894 0.210274 0.464
0.709463 0.206302 0.464
0.773282 0.204978 0.464
0.8291230000000001 0.207626 0.464
0.87 0.212923 0.464
0.87 0.273829 0.464
0.817157 0.259265 0.464
0.7453610000000001 0.253968 0.464
0.689519 0.252644 0.464
0.662928 0.2447 0.464
0.235 0.4326791543359992 0.349
0.235 0.389023 0.349
0.2444740061001526 0.4307920488012206 0.349
0.239252875 0.389023 0.349
0.5750000000000002 0.426096 0.349
0.5750000000000002 0.395643 0.349
0.5771262608695654 0.426096 0.349
0.5784503043478263 0.395643 0.349
0.1458418357723253 0.212920249122877 0.349
0.1369309699085633 0.2321489596709951 0.349
0.265 0.2390133850672143 0.349
0.265 0.2101860029396229 0.349
0.330820022378294 0.2400695043071392 0.349
0.3087391050775338 0.209853512211362 0.349
0.4317536514413577 0.2085803317098679 0.349
0.4332432838334389 0.2413522443356545 0.349
0.4564607663839718 0.2063835537779613 0.349
0.4823426602084394 0.2419711577866042 0.349
0.3863587837276576 0.3838079336894972 0.349
0.4372351545031049 0.4297607847124819 0.349
0.6297389808643304 0.426096 0.349
0.60682229628037 0.395643 0.349
0.6850000000000002 0.426096 0.349
0.6850000000000002 0.3957578904797289 0.349
0.4282321163118568 0.2088934411391513 0.349
0.4267604306416607 0.2412705258834632 0.349
0.5493589920410495 0.2534444597689095 0.349
0.4914666365727619 0.2032710850297269 0.349
0.365 0.2094258348299382 0.349
0.365 0.2404949665397452 0.349
0.3617974953313339 0.2404551027106538 0.349
0.3632072971643092 0.2094394623851966 0.349
0.775 0.4232017525920182 0.349
0.775 0.3979174859633543 0.349
0.3582004694544761 0.2404103279984744 0.349
0.356794918511036 0.209488207242791 0.349
0.13189028958876 0.4342009683196865 0.349
0.09312926213045204 0.375039400093848 0.349
0.08 0.436689 0.349
0.08 0.37181 0.349
0.175 0.4353306964946658 0.349
0.175 0.3877580770928711 0.349
0.25 0.4296913387569885 0.349
0.25 0.3909819098492359 0.349
0.8122301292275651 0.2068249340841782 0.349
0.8530727728255495 0.2691637058916281 0.349
0.8700000000000001 0.212923 0.349
0.8700000000000001 0.273829 0.349
0.775 0.20505946816855 0.349
0.775 0.2561547204718926 0.349
0.5171262608695653 0.426096 0.349
0.5184503043478261 0.395643 0.349
0.52 0.395643 0.349
0.52 0.426096 0.349
0.5828737391304349 0.426096 0.349
0.5815496956521741 0.395643 0.349
0.4809798260869566 0.426096 0.349
0.4582742919073167 0.3934567946167676 0.349
0.4519778897229038 0.4282416601169931 0.349
0.3909913878577128 0.382993610346045 0.349
0.175 0.2122030320352109 0.349
0.175 0.2352441975471611 0.349
0.5128737391304348 0.426096 0.349
0.5115496956521739 0.395643 0.349
0.7000000000000002 0.2528925019161204 0.349
0.7000000000000002 0.2073893046949579 0.349
0.7097655049527181 0.2531240396217435 0.349
0.703991337190401 0.2069306975232066 0.349
0.7150000000000001 0.2532481482038609 0.349
0.7150000000000001 0.2061871284413733 0.349
0.425 0.2412483350883039 0.349
0.425 0.2089697339641274 0.349
0.5434425995352442 0.253191239659179 0.349
0.4771102918420351 0.2045475473508257 0.349
0.6936529669585964 0.3959655227948816 0.349
0.6911355205258176 0.426096 0.349
0.7321262008997171 0.3968887074866562 0.349
0.7441864667413957 0.4257529437344068 0.349
0.7304334714877252 0.2058669429754501 0.349
0.7548334307892549 0.2546668615785098 0.349
0.4036552783283402 0.2091319897313763 0.349
0.386402652855727 0.2407618030978339 0.349
0.5516111304347827 0.426096 0.349
0.5370466521739131 0.395643 0.349
0.2143221821730046 0.4336443643460092 0.349
0.1920114999999999 0.389023 0.349
0.2576017083287028 0.238779500055567 0.349
0.2599813205549757 0.2102241533402913 0.349
0.2006549933707269 0.2115719840897445 0.349
0.2113826497322321 0.2373183593573572 0.349
0.125 0.22 0.349
0.14573 0.212923 0.349
0.128445 0.231459 0.349
0.277356 0.239404 0.349
0.358459 0.403587 0.349
0.371755 0.386375 0.349
0.434244 0.430069 0.349
0.398346 0.443309 0.349
0.370425 0.441985 0.349
0.357129 0.424772 0.349
0.680212 0.395643 0.349
0.502051 0.20233 0.349
0.559222 0.190414 0.349
0.584484 0.207626 0.349
0.584484 0.230135 0.349
0.563211 0.249996 0.349
0.790566 0.398291 0.349
0.82 0.404911 0.349
0.82 0.419476 0.349
0.125786 0.434041 0.349
0.128445 0.383726 0.349
0.242787 0.389023 0.349
0.8291230000000001 0.207626 0.349
0.817157 0.259265 0.349
0.394357 0.382402 0.349
0.436903 0.389023 0.349
0.472801 0.426096 0.349
0.272038 0.396967 0.349
0.274697 0.424772 0.349
0.709463 0.206302 0.349
0.665587 0.219543 0.349
0.674894 0.210274 0.349
0.689519 0.252644 0.349
0.662928 0.2447 0.349
0.427596 0.20895 0.349
0.488756 0.242052 0.349
0.547256 0.253968 0.349
0.587143 0.426096 0.349
0.468812 0.395643 0.349
0.7453610000000001 0.253968 0.349
0.773282 0.204978 0.349
0.740043 0.426096 0.349
0.383721 0.240728 0.349
0.189605 0.389023 0.349
0.176309 0.435365 0.349
0.253424 0.210274 0.349
0.193594 0.236756 0.349
0.23481 0.432717 0.349
 }
Edges ( 941) {
0 1
0 2
2 1
3 4
4 5
3 5
4 6
6 5
7 8
8 9
7 9
10 11
11 12
10 12
11 13
13 12
14 15
14 16
15 16
17 15
17 16
18 19
18 20
19 20
21 22
23 22
21 23
24 25
0 19
19 6
0 6
3 0
3 19
3 20
27 28
28 13
27 13
29 30
29 31
30 31
32 33
34 32
34 33
35 27
35 13
35 10
27 10
35 36
36 13
37 38
37 39
38 39
40 41
40 42
41 42
40 43
41 43
44 35
35 45
44 45
35 46
46 44
47 43
47 48
43 48
49 50
49 51
50 51
52 50
52 51
53 45
53 54
45 54
45 55
55 54
56 23
56 47
23 47
57 26
57 58
58 26
57 59
58 59
26 59
60 46
46 11
60 11
46 10
61 62
62 15
61 15
62 17
63 47
64 47
63 64
14 38
38 16
39 16
65 66
65 67
66 67
65 68
68 66
69 52
69 31
52 31
50 31
61 14
70 72
71 72
71 73
74 75
74 76
74 77
77 76
32 67
78 67
32 68
79 80
80 54
79 54
81 79
81 54
82 83
63 83
82 63
84 50
84 85
50 85
57 25
86 87
86 88
87 88
87 52
52 88
80 51
79 51
86 79
86 51
88 51
89 90
90 84
84 89
91 92
91 93
92 93
94 91
94 93
95 86
95 81
86 81
93 96
93 6
96 6
60 97
60 36
97 36
35 97
81 53
43 56
17 39
98 99
99 17
98 17
99 14
98 14
61 98
3 1
100 101
101 9
100 9
100 74
74 9
99 39
34 1
103 104
103 105
104 105
44 55
0 106
106 6
92 18
92 19
92 6
73 107
107 109
108 109
110 111
110 107
111 107
3 112
112 4
2 69
2 31
112 69
112 2
113 32
113 67
113 66
2 29
7 101
101 75
7 75
114 73
114 71
72 114
75 115
74 115
9 115
49 84
116 21
21 64
116 64
0 29
29 106
117 105
105 63
117 63
103 83
103 118
106 4
29 4
119 103
83 119
105 119
82 72
109 72
82 109
24 57
120 121
120 122
121 122
78 121
122 78
18 123
123 124
18 124
77 123
77 124
76 124
36 11
125 40
125 116
40 116
125 43
20 5
18 5
94 76
104 27
104 28
104 10
126 32
127 32
126 127
127 59
59 126
99 37
23 128
128 21
116 128
7 98
98 8
129 130
130 65
129 65
131 65
131 130
129 131
8 62
62 9
131 68
34 66
66 133
34 133
18 96
96 5
95 80
95 55
80 55
109 49
49 72
108 49
134 55
81 134
72 89
49 89
135 37
37 28
135 28
78 75
7 78
111 63
111 82
78 61
78 62
136 102
137 102
136 137
138 139
139 105
105 138
138 140
139 140
8 17
118 14
118 38
102 135
137 135
137 63
135 63
117 110
111 117
110 141
141 117
44 134
142 76
18 142
138 143
105 143
135 99
135 14
137 144
144 136
144 22
22 136
26 33
33 59
10 145
145 12
145 13
133 59
133 113
59 113
112 30
30 85
112 85
31 85
18 94
94 96
69 146
146 52
38 145
118 145
38 28
28 145
49 80
103 10
103 145
30 4
135 118
34 24
1 24
33 127
68 34
40 128
60 45
97 45
61 121
98 121
126 113
53 134
128 56
114 82
82 73
125 48
116 48
64 48
80 146
80 87
87 146
133 128
128 147
133 147
133 56
101 148
101 77
148 77
75 148
148 142
133 112
3 133
94 124
111 109
73 83
83 107
137 21
137 64
150 42
149 42
150 151
152 79
86 152
152 81
149 41
43 149
142 123
151 153
150 153
153 42
153 147
147 42
147 151
89 70
90 70
98 120
7 120
107 141
83 141
34 56
75 62
62 115
148 123
128 42
89 154
154 70
154 72
49 146
104 63
102 118
104 135
155 110
155 141
107 155
141 139
141 140
143 119
156 57
156 24
59 156
133 156
136 157
157 102
139 117
83 47
129 132
120 129
120 65
120 132
90 108
69 90
69 84
69 108
122 132
7 65
146 108
112 84
95 87
21 144
67 7
3 156
156 1
151 112
147 112
151 2
100 77
138 35
138 27
109 80
103 143
108 87
155 134
138 44
139 44
143 10
138 104
139 55
110 139
110 55
140 134
143 46
140 155
109 55
95 108
109 110
112 153
112 154
153 154
158 159
159 54
158 54
158 28
158 13
160 37
160 39
94 161
161 96
159 79
159 51
153 72
72 42
159 50
126 58
160 158
158 37
154 84
158 97
158 36
160 159
129 136
130 136
100 160
160 9
160 8
144 128
159 30
159 85
161 30
161 4
41 114
41 72
66 130
66 144
130 144
161 124
114 48
41 48
57 3
161 160
159 161
126 67
57 18
57 20
161 5
129 98
129 99
58 123
57 123
126 148
148 67
158 45
66 128
126 123
160 77
160 124
63 114
63 48
135 136
160 17
136 99
41 125
148 7
34 131
22 56
157 132
132 14
157 14
22 34
118 157
131 22
132 121
121 14
47 149
71 149
70 69
70 2
83 71
83 149
70 150
2 150
1 25
1 19
25 19
92 25
26 127
127 142
26 142
162 163
163 164
164 165
165 166
166 167
167 168
168 169
169 170
170 171
171 162
172 173
173 174
174 175
175 176
176 177
177 178
178 179
179 180
180 181
181 182
182 183
183 184
184 185
185 186
186 172
187 188
188 189
189 190
190 191
191 192
192 193
193 194
194 195
195 196
196 197
197 198
198 199
199 200
200 201
201 202
202 187
203 204
204 205
205 206
206 207
207 208
208 209
209 210
210 211
211 212
212 213
213 203
25 214
214 215
215 26
24 216
216 217
217 26
70 218
218 219
219 71
70 220
220 221
221 73
75 222
222 223
223 76
32 224
224 225
225 78
68 226
226 227
227 78
102 228
228 229
229 23
102 230
230 231
231 47
34 232
232 233
233 2
108 234
234 235
235 73
108 236
236 237
237 107
102 238
238 239
239 22
83 240
240 241
241 118
132 242
242 243
243 131
68 244
244 245
245 132
95 246
246 247
247 134
68 248
248 249
249 122
92 250
250 251
251 76
91 252
252 253
253 76
92 254
254 255
255 142
24 256
256 257
257 33
46 258
258 259
259 53
60 260
260 261
261 53
46 262
262 263
263 134
151 264
264 265
265 149
149 266
266 267
267 150
90 268
268 269
269 73
151 270
270 271
271 56
151 272
272 273
273 34
75 274
274 275
275 142
151 276
276 277
277 43
141 278
278 279
279 119
140 280
280 281
281 119
140 282
282 283
283 143
22 284
284 285
285 157
83 286
286 287
287 102
155 288
288 289
289 108
155 290
290 291
291 95
143 292
292 293
293 134
157 294
294 295
295 131
70 296
296 297
297 149
25 298
298 299
299 142
127 300
300 301
301 78
75 302
302 303
303 127
215 217
214 216
219 221
218 220
304 305
305 222
223 306
306 304
225 227
226 307
307 224
228 230
229 231
308 309
309 232
233 310
310 311
311 312
312 313
313 308
235 314
314 237
234 236
228 238
229 239
241 315
315 316
316 317
317 318
318 319
319 240
242 245
243 244
247 320
320 321
321 322
322 246
249 227
248 226
251 253
250 323
323 252
251 324
324 255
254 250
217 325
325 257
216 256
258 326
326 260
259 261
258 262
259 327
327 263
265 266
264 267
221 269
220 268
273 328
328 329
329 271
270 330
330 272
257 331
331 332
332 256
274 222
275 223
277 265
276 264
279 281
278 280
281 333
333 283
282 280
334 335
335 279
278 336
336 337
337 334
285 338
338 238
239 284
287 230
286 339
339 231
287 241
240 340
340 286
269 235
234 341
341 268
245 249
244 248
273 232
272 233
271 342
342 277
276 270
237 288
236 289
290 247
291 246
283 292
293 343
343 282
292 344
344 262
263 293
290 288
291 345
345 289
294 242
295 346
346 243
285 294
284 295
219 297
218 296
297 266
296 267
255 347
347 299
298 348
348 254
225 301
224 300
302 349
349 301
303 300
302 274
303 350
350 275
215 299
214 351
351 298
253 162
324 163
347 164
325 165
331 166
332 167
351 168
348 169
323 170
252 171
304 172
305 173
349 174
338 175
315 176
316 177
317 178
318 179
319 180
340 181
339 182
346 183
307 184
350 185
306 186
308 187
309 188
328 189
329 190
342 191
314 192
320 193
321 194
322 195
345 196
341 197
330 198
310 199
311 200
312 201
313 202
334 203
335 204
333 205
344 206
326 207
260 208
261 209
327 210
343 211
336 212
337 213
 }
Faces ( 596) {
3 -1 1 2 
3 3 4 -6 
3 6 7 -5 
3 8 9 -11 
3 11 12 -14 
3 14 15 -13 
3 -17 17 -19 
3 19 18 -21 
3 -22 22 -24 
3 24 -26 -27 
3 28 29 -31 
3 -32 32 -29 
3 -33 33 -24 
3 34 35 -37 
3 -38 38 -40 
3 -41 -42 42 
3 43 36 -45 
3 -44 45 -47 
3 47 48 -45 
3 -50 50 -52 
3 -53 53 -55 
3 -53 55 -57 
3 57 58 -60 
3 -61 -58 -62 
3 -63 63 -65 
3 -66 66 -68 
3 -69 69 -68 
3 -71 71 -73 
3 -74 72 -75 
3 -76 76 -78 
3 -79 79 80 
3 81 -83 -80 
3 83 -83 80 
3 84 85 -87 
3 87 11 -86 
3 60 87 -46 
3 88 89 -91 
3 91 19 -90 
3 92 -94 -95 
3 -96 17 -97 
3 51 97 -97 
3 -99 99 -101 
3 -102 98 -103 
3 -104 104 -106 
3 -69 105 -107 
3 107 16 -91 
3 113 114 -113 
3 118 119 -121 
3 -122 122 -121 
3 123 -125 -126 
3 -127 127 -129 
3 -131 131 -133 
3 -134 132 -135 
3 118 135 -137 
3 137 136 -139 
3 134 139 -70 
3 140 141 142 
3 -144 144 -146 
3 146 144 -148 
3 -149 149 -151 
3 -152 152 -154 
3 -155 155 -157 
3 157 156 -48 
3 -159 122 -72 
3 159 76 62 
3 -161 20 -98 
3 161 162 -164 
3 161 164 -166 
3 -167 107 -166 
3 -32 167 -1 
3 168 169 -171 
3 -172 170 -173 
3 -163 173 -161 
3 -176 176 -178 
3 59 73 -179 
3 -180 30 -181 
3 181 21 -183 
3 182 29 -184 
3 -188 188 -190 
3 -191 3 -192 
3 145 152 -184 
3 192 104 -194 
3 194 -193 -196 
3 -197 197 -116 
3 198 100 -198 
3 -200 193 -39 
3 200 169 -11 
3 200 201 -203 
3 203 -111 -205 
3 109 205 204 
3 131 139 -139 
3 111 206 -208 
3 172 208 -208 
3 209 126 -66 
3 210 211 -213 
3 213 214 -180 
3 215 216 -218 
3 214 220 -222 
3 -223 -224 -219 
3 -177 -223 -225 
3 220 6 -181 
3 225 -227 -228 
3 -28 228 129 
3 -230 230 -232 
3 -232 -233 -234 
3 234 235 -237 
3 237 235 -239 
3 114 239 -239 
3 155 240 -87 
3 -242 242 -244 
3 241 55 -245 
3 22 245 -247 
3 248 34 -250 
3 248 46 -251 
3 251 -253 -254 
3 254 255 253 
3 -257 173 -51 
3 26 257 258 
3 210 -259 -260 
3 -261 8 -262 
3 262 263 -265 
3 265 -264 -267 
3 262 -267 -268 
3 268 269 -10 
3 270 -102 -266 
3 271 272 -274 
3 274 275 -247 
3 -154 275 -8 
3 -277 277 -279 
3 -280 226 -281 
3 -187 281 -280 
3 280 284 -286 
3 286 287 -289 
3 202 -290 -291 
3 291 -126 -293 
3 293 88 -295 
3 295 -297 -298 
3 298 299 300 
3 301 -303 -299 
3 268 91 -304 
3 -305 305 -96 
3 -307 -297 307 
3 -308 308 -310 
3 -188 -311 -312 
3 -313 -311 -314 
3 314 282 -179 
3 240 14 -49 
3 -262 163 -304 
3 300 317 -319 
3 -320 320 -165 
3 -320 286 -257 
3 297 321 322 
3 -324 322 -325 
3 -84 325 326 
3 327 328 -14 
3 -330 328 -16 
3 -331 331 -333 
3 333 334 -336 
3 -40 334 -337 
3 337 338 -275 
3 -148 338 -152 
3 339 340 -104 
3 305 341 -343 
3 343 344 -342 
3 345 135 -67 
3 346 327 -348 
3 -176 346 -251 
3 37 348 -222 
3 -334 191 -349 
3 349 304 -321 
3 350 -352 -175 
3 252 40 352 
3 254 -327 352 
3 -118 -42 -354 
3 -354 102 -272 
3 243 259 -355 
3 -155 355 -357 
3 157 356 -59 
3 -233 293 357 
3 -167 357 -359 
3 359 196 -252 
3 332 -360 -256 
3 -159 283 -361 
3 75 257 361 
3 331 198 272 
3 -363 -206 -226 
3 362 363 -204 
3 244 64 -365 
3 242 365 -365 
3 -213 365 -367 
3 93 63 -367 
3 -279 119 -75 
3 -107 128 -337 
3 -368 368 369 
3 -370 133 -341 
3 1 199 -214 
3 370 371 -373 
3 373 -362 -371 
3 311 217 -292 
3 -375 375 -377 
3 -202 374 -378 
3 190 -380 -381 
3 337 381 -237 
3 -248 381 -240 
3 292 227 -383 
3 189 185 -383 
3 -384 184 -385 
3 123 -384 -364 
3 385 211 -387 
3 137 -391 -392 
3 -393 390 -122 
3 -151 391 392 
3 -394 388 -55 
3 56 394 393 
3 49 343 -288 
3 -317 234 -396 
3 -397 -390 397 
3 -398 387 -399 
3 399 400 -399 
3 -397 -402 -400 
3 -345 35 -330 
3 402 -404 -141 
3 -220 347 -343 
3 -230 -405 358 
3 405 -405 -261 
3 384 406 -408 
3 -274 408 -374 
3 -410 206 -411 
3 269 208 -411 
3 -379 411 -396 
3 376 237 -412 
3 354 412 -54 
3 371 400 -413 
3 413 414 -403 
3 -416 -414 -285 
3 -415 415 -109 
3 345 367 -417 
3 285 -143 -210 
3 177 216 -418 
3 -309 386 -95 
3 418 -350 -307 
3 419 309 -418 
3 -421 421 -313 
3 -423 406 -422 
3 -421 -423 -189 
3 423 302 -425 
3 289 409 -295 
3 318 425 -225 
3 228 -427 427 
3 81 428 426 
3 -331 429 -429 
3 430 431 -296 
3 299 -216 -433 
3 313 -433 -424 
3 124 433 -93 
3 435 264 -437 
3 435 434 -438 
3 -440 440 -142 
3 -440 441 -439 
3 437 -443 -231 
3 436 -444 405 
3 441 -445 -340 
3 281 416 444 
3 445 127 -336 
3 445 -441 -195 
3 -149 446 -131 
3 276 368 -447 
3 385 447 -322 
3 447 323 -25 
3 -444 -449 -100 
3 380 429 -450 
3 449 450 -168 
3 427 -352 -451 
3 116 448 290 
3 451 -453 401 
3 379 -453 -373 
3 33 245 -6 
3 419 288 -250 
3 451 195 -454 
3 168 375 -455 
3 -172 454 -114 
3 -456 456 -44 
3 457 -346 -280 
3 -459 -223 -426 
3 -445 -370 -460 
3 -299 461 -463 
3 458 463 -347 
3 -301 -178 -465 
3 -463 465 -179 
3 466 465 -468 
3 470 460 -469 
3 457 278 -472 
3 -465 456 -249 
3 455 -58 -462 
3 -470 463 -88 
3 473 467 -472 
3 -383 -188 -474 
3 -311 -433 -467 
3 -425 -422 -471 
3 -473 446 -460 
3 -475 475 -477 
3 477 478 -480 
3 -481 481 -36 
3 482 50 -484 
3 484 485 -339 
3 486 136 -488 
3 488 489 -399 
3 490 67 -488 
3 -256 -83 -492 
3 -493 482 -494 
3 -414 -143 -495 
3 495 156 -497 
3 497 -478 -493 
3 498 -500 -263 
3 -501 170 -502 
3 502 9 -502 
3 -448 -259 -504 
3 504 334 -506 
3 506 348 -508 
3 508 -206 -510 
3 -511 511 -513 
3 493 287 -481 
3 484 513 -382 
3 508 514 -516 
3 -427 -450 -517 
3 -518 -519 -498 
3 488 -416 -477 
3 -360 519 -198 
3 520 22 -522 
3 -508 522 -5 
3 523 161 -525 
3 -497 481 -49 
3 -99 -264 -511 
3 79 525 -527 
3 -476 445 -495 
3 527 528 -520 
3 495 356 -530 
3 530 -371 -273 
3 -491 505 -129 
3 -475 -453 -400 
3 529 72 -480 
3 509 489 -55 
3 491 525 -532 
3 -501 454 -533 
3 532 238 -534 
3 534 514 -536 
3 517 533 -514 
3 -308 -298 -537 
3 530 -504 -512 
3 502 303 -538 
3 516 33 -522 
3 -486 522 -276 
3 536 538 -320 
3 498 538 -525 
3 -519 504 -507 
3 537 160 -484 
3 520 234 -527 
3 539 364 -516 
3 -95 535 -367 
3 -126 -363 -535 
3 -53 -242 -540 
3 499 -323 -513 
3 -375 -201 -541 
3 -541 528 448 
3 527 411 -532 
3 486 120 -479 
3 -436 -405 -524 
3 -354 -271 -542 
3 -26 -76 -543 
3 543 544 -546 
3 542 -409 -547 
3 547 545 -305 
3 -542 -547 -549 
3 -443 -232 -550 
3 418 547 431 
3 -358 107 -551 
3 -550 544 -551 
3 -63 551 -395 
3 553 -193 -555 
3 555 110 383 
3 433 551 -557 
3 555 552 -557 
3 -404 -440 -554 
3 -454 -390 -559 
3 -555 557 -559 
3 -560 560 -562 
3 563 564 -566 
3 -1 28 -561 
3 -563 182 -562 
3 563 -353 -326 
3 -352 559 -28 
3 623 -621 753 
4 -619 -28 621 -755 
4 -620 754 622 -754 
4 629 -111 -627 755 
3 -625 627 -757 
4 -626 756 628 -756 
8 -631 -112 112 -633 759 760 757 758 
5 -632 -759 -758 -761 -760 
3 638 -636 761 
5 -634 117 636 762 763 
5 -635 -764 -763 637 -762 
3 -640 642 -765 
4 644 -78 -642 765 
4 640 765 -644 -765 
11 -646 174 -3 -648 768 769 770 771 772 766 767 
8 -647 -768 -767 -773 -772 -771 -770 -769 
5 653 -185 -651 773 774 
3 -649 651 -776 
5 -650 775 652 -775 -774 
3 -640 654 -777 
4 656 -26 -642 777 
4 640 777 -656 -777 
10 -658 -219 219 -660 778 779 780 781 782 783 
7 658 778 779 780 781 782 783 
3 -661 -666 -785 
4 -664 -271 -663 785 
4 661 785 664 -785 
8 -667 149 283 -669 786 787 788 789 
5 667 786 787 788 789 
4 638 -234 -672 790 
3 -670 636 -792 
4 -671 791 637 -791 
3 677 -675 792 
5 -673 -144 675 -795 -794 
5 -674 793 794 676 -793 
5 674 -316 -681 -797 -796 
3 -679 672 -798 
5 -680 797 673 795 796 
5 683 -326 -624 798 799 
3 -622 681 -801 
5 -623 800 682 -800 -799 
5 -685 -85 687 -803 -802 
3 689 -687 803 
5 685 803 -689 -803 -802 
3 -685 690 -805 
5 692 -361 -687 805 806 
5 685 805 806 -692 -805 
3 -697 -696 807 
4 -694 -390 -699 -809 
4 -695 808 -698 -808 
3 701 -630 809 
4 -628 -404 699 -811 
4 -629 810 700 -810 
6 707 408 -705 -814 -813 -812 
4 -703 705 -816 -815 
7 -704 814 815 706 811 812 813 
7 -682 -351 42 -684 816 817 818 
4 682 816 817 818 
3 -709 630 -820 
4 632 -316 -711 820 
4 709 820 -632 -820 
4 695 -395 -714 821 
3 -712 693 -823 
4 -713 822 694 -822 
3 719 -717 823 
4 -715 424 717 -825 
4 -716 824 718 -824 
5 719 -426 -723 -827 -826 
3 -721 717 -828 
5 -722 827 718 825 826 
9 -715 -408 223 -717 -830 -829 -833 -832 -831 
6 715 -830 -829 -833 -832 -831 
5 -655 -432 -726 833 834 
3 -724 -657 835 
5 655 835 724 833 834 
3 -643 -729 836 
5 -727 433 -645 -839 -838 
5 -728 837 838 -644 -837 
4 659 -419 -729 839 
4 -727 657 840 841 
5 -728 -842 -841 658 -840 
3 650 -702 842 
5 -700 438 648 843 844 
5 -701 -845 -844 649 -843 
4 671 442 -666 845 
3 -664 669 -847 
4 -665 846 670 -846 
3 -646 -708 847 
4 -706 453 -648 -849 
4 -707 848 -647 -848 
5 704 -160 -714 -851 -850 
3 -712 702 -852 
5 -713 851 703 849 850 
4 -730 -423 -654 852 
3 -652 -732 -854 
4 -653 853 -731 -853 
4 -733 460 -669 -855 
3 -667 -735 855 
4 733 855 667 -855 
3 -736 -723 856 
5 -721 468 -738 857 858 
5 -722 -859 -858 -737 -857 
5 -691 -470 735 859 860 
3 737 -693 861 
5 691 861 -737 859 860 
3 -733 729 -863 
5 731 -473 -735 863 864 
5 733 863 864 -731 -863 
4 -739 543 660 -866 
4 662 -741 866 867 
5 739 866 867 -662 -866 
3 -739 -726 868 
4 -724 -549 -741 -870 
4 -725 869 -740 -869 
4 743 -553 -627 870 
3 -625 741 -872 
4 -626 871 742 -871 
3 -697 -744 872 
4 -742 557 -699 -874 
4 -743 873 -698 -873 
4 746 -681 874 875 
5 -679 562 744 876 877 
6 -680 -878 -877 745 -876 -875 
3 749 -636 878 
4 -634 -253 747 -880 
4 -635 879 748 -879 
5 -751 -290 -750 -882 -881 
3 -748 -753 882 
5 751 882 748 -882 -881 
3 -751 708 -884 
5 710 -565 -753 884 885 
5 751 884 885 -710 -884 
4 746 -566 -621 886 
4 -619 744 -889 -888 
5 -620 887 888 745 -887 
5 -109 624 625 626 109 
5 -116 633 634 635 116 
5 -130 78 -621 -620 -619 
5 185 -187 651 652 653 
5 146 675 676 677 -248 
5 -283 -669 -668 -667 277 
5 181 316 -681 -680 -679 
5 317 -723 -722 -721 -302 
5 -71 -690 -689 -688 355 
5 -62 690 691 692 -315 
5 -378 708 709 710 -379 
5 -388 -699 -698 -697 388 
5 324 430 -726 -725 -724 
5 267 -663 -662 -661 -435 
10 566 567 568 569 570 571 572 573 574 575 
5 -793 795 890 -567 -890 
5 796 874 891 -568 -891 
7 -799 -754 886 -876 891 568 -893 
5 799 816 893 -570 -893 
4 -818 893 570 -895 
7 818 -801 -755 887 895 -572 -895 
5 -877 -889 895 572 -897 
6 -794 -798 -878 896 573 -898 
4 -795 897 574 -899 
4 -677 898 575 -890 
15 576 577 578 579 580 581 582 583 584 585 586 587 588 589 590 
4 -758 899 576 -901 
7 758 -820 -884 880 901 -578 -901 
12 -834 868 865 784 845 790 -762 878 -882 901 578 -903 
9 -779 -840 836 -765 776 -835 902 579 -904 
4 -780 903 580 -905 
4 -781 904 581 -906 
4 -782 905 582 -907 
4 -783 906 583 -908 
5 783 840 908 -585 -908 
5 -838 -842 908 585 -910 
9 838 -766 777 835 869 866 910 -587 -910 
8 -763 -792 -847 -786 -868 910 587 -912 
7 763 879 -883 884 912 -589 -912 
6 -760 -821 -886 912 589 -914 
4 -761 913 590 -900 
16 591 592 593 594 595 596 597 598 599 600 601 602 603 604 605 606 
4 -767 914 591 -916 
6 767 -848 811 916 -593 -916 
4 -813 916 593 -918 
5 813 849 918 -595 -918 
12 -774 -843 -810 -756 870 872 -808 -822 -851 918 595 -920 
8 774 852 -863 854 786 920 -597 -920 
4 -788 920 597 -922 
4 -789 921 598 -923 
6 789 -856 863 923 -600 -923 
7 -844 775 853 -865 923 600 -925 
12 -815 -852 822 808 -874 -872 756 810 -845 924 601 -926 
6 -769 -849 -816 925 602 -927 
4 -770 926 603 -928 
4 -771 927 604 -929 
4 -772 928 605 -930 
4 -773 929 606 -915 
11 607 608 609 610 611 612 613 614 615 616 617 
4 -829 930 607 -932 
6 -826 -824 -830 931 608 -933 
6 826 856 859 933 -610 -933 
6 -802 804 -861 933 610 -935 
4 -803 934 611 -936 
4 -689 935 612 -937 
5 -804 805 937 -614 -937 
6 806 861 857 938 -615 -938 
7 -831 824 -828 -859 938 615 -940 
4 -832 939 616 -941 
4 -833 940 617 -931 
 }
Locations ( 596) {
efefeeeeffefffeefffeffffffeefe
fffeefeefeeffeeeefeffeefeefeee
eefeeefffffefffefeffeefffeffff
eeeffefeefefffeffeefffffffffff
fffefffefffffffefffeefffffefff
ffffeeffefeeeefefeffeefeffefef
ffefffffffffefeefffffffeffeffe
eeffefffffefeffefeefffffffffff
fffeffefffffffffffeffefffeffff
ffffffffffeffeefefffefffefffee
feeeeefefefeefeefeeffeeffefffe
feffffefefeffeefeffefeffeeffff
fffffefeeeeeeeeeeeeeeeeeeeeeee
eeefeefefeefeefefeefeefefeefef
eefeefeefeefeefeefeefeefeefefe
efeefeefeefefeefeefeefeefeefee
feefeefeefeefeefeefeefeefeefee
feefeefeefeefeefeeeeeeeeeeeeee
eeeeeeeeeeeeeeeeeeeeeeeeeeeeee
eeeeeeeeeeeeeeeeeeeeeeeeee }
Elements ( 10) {