<?xml version="1.0"?>
<VTKFile type="UnstructuredGrid" version="0.1" byte_order="LittleEndian">
 <UnstructuredGrid>
  <Piece NumberOfPoints="9428" NumberOfCells="5400">
   <Points>
    <DataArray type="Float32" NumberOfComponents="3" format="ascii">
3e-06 2.75e-06 5e-07
2.5e-06 2.5e-06 0
3e-06 2.75e-06 0
3e-06 2e-06 0
2.75e-06 2.625e-06 2.5e-07
2.75e-06 2.625e-06 0
3e-06 2.75e-06 2.5e-07
3e-06 2.375e-06 2.5e-07
2.75e-06 2.25e-06 0
3e-06 2.375e-06 0
3e-06 2e-06 5e-07
3e-06 2.375e-06 5e-07
3e-06 2e-06 2.5e-07
2.75e-06 2.25e-06 2.5e-07
2.5e-06 2.5e-06 5e-07
2.75e-06 2.25e-06 5e-07
2.5e-06 2.5e-06 2.5e-07
2.75e-06 2.625e-06 5e-07
0 2e-06 5e-07
0 0 0
0 2e-06 0
2e-06 0 0
0 1e-06 2.5e-07
0 1e-06 0
0 2e-06 2.5e-07
1e-06 1e-06 2.5e-07
1e-06 0 0
1e-06 1e-06 0
2e-06 0 5e-07
1e-06 1e-06 5e-07
2e-06 0 2.5e-07
1e-06 0 2.5e-07
0 0 5e-07
1e-06 0 5e-07
0 0 2.5e-07
0 1e-06 5e-07
1.29289e-06 3.29289e-06 5e-07
0 2.7e-06 0
1.29289e-06 3.29289e-06 0
6.46447e-07 2.99645e-06 2.5e-07
6.46447e-07 2.99645e-06 0
1.29289e-06 3.29289e-06 2.5e-07
6.46447e-07 2.64645e-06 2.5e-07
0 2.35e-06 0
6.46447e-07 2.64645e-06 0
0 2.7e-06 5e-07
6.46447e-07 2.99645e-06 5e-07
0 2.35e-06 2.5e-07
0 2.7e-06 2.5e-07
6.46447e-07 2.64645e-06 5e-07
0 2.35e-06 5e-07
2e-06 4e-06 0
1.29289e-06 3.99289e-06 0
1.64645e-06 3.64645e-06 2.5e-07
1.64645e-06 3.64645e-06 0
1.29289e-06 3.64289e-06 2.5e-07
1.64645e-06 3.99645e-06 0
1.29289e-06 3.64289e-06 0
1.29289e-06 3.99289e-06 5e-07
1.29289e-06 3.64289e-06 5e-07
1.29289e-06 3.99289e-06 2.5e-07
1.64645e-06 3.99645e-06 2.5e-07
2e-06 4e-06 5e-07
1.64645e-06 3.99645e-06 5e-07
2e-06 4e-06 2.5e-07
1.64645e-06 3.64645e-06 5e-07
2.5e-06 1.1e-05 5e-07
3e-06 1.05e-05 0
2.5e-06 1.1e-05 0
3e-06 1.225e-05 0
2.75e-06 1.075e-05 2.5e-07
2.75e-06 1.075e-05 0
2.5e-06 1.1e-05 2.5e-07
2.75e-06 1.1625e-05 2.5e-07
3e-06 1.1375e-05 0
2.75e-06 1.1625e-05 0
3e-06 1.225e-05 5e-07
2.75e-06 1.1625e-05 5e-07
3e-06 1.225e-05 2.5e-07
3e-06 1.1375e-05 2.5e-07
3e-06 1.05e-05 5e-07
3e-06 1.1375e-05 5e-07
3e-06 1.05e-05 2.5e-07
2.75e-06 1.075e-05 5e-07
2e-06 3e-06 5e-07
2.5e-06 3.5e-06 0
2e-06 3e-06 0
2.25e-06 3.25e-06 2.5e-07
2.25e-06 3.25e-06 0
2e-06 3e-06 2.5e-07
2e-06 3.5e-06 2.5e-07
2.25e-06 3.75e-06 0
2e-06 3.5e-06 0
2.5e-06 3.5e-06 5e-07
2.25e-06 3.25e-06 5e-07
2.25e-06 3.75e-06 2.5e-07
2.5e-06 3.5e-06 2.5e-07
2e-06 3.5e-06 5e-07
2.25e-06 3.75e-06 5e-07
3e-06 1e-06 5e-07
2.5e-06 0 0
3e-06 1e-06 0
3e-06 0 0
2.75e-06 5e-07 2.5e-07
2.75e-06 5e-07 0
3e-06 1e-06 2.5e-07
3e-06 5e-07 2.5e-07
2.75e-06 0 0
3e-06 5e-07 0
3e-06 0 5e-07
3e-06 5e-07 5e-07
3e-06 0 2.5e-07
2.75e-06 0 2.5e-07
2.5e-06 0 5e-07
2.75e-06 0 5e-07
2.5e-06 0 2.5e-07
2.75e-06 5e-07 5e-07
0 3.4e-06 0
6.46447e-07 3.69645e-06 2.5e-07
6.46447e-07 3.69645e-06 0
6.46447e-07 3.34645e-06 2.5e-07
0 3.05e-06 0
6.46447e-07 3.34645e-06 0
0 3.4e-06 5e-07
6.46447e-07 3.69645e-06 5e-07
0 3.05e-06 2.5e-07
0 3.4e-06 2.5e-07
6.46447e-07 3.34645e-06 5e-07
0 3.05e-06 5e-07
2e-06 2e-06 0
2e-06 2.5e-06 2.5e-07
2e-06 2.5e-06 0
2.25e-06 2.75e-06 2.5e-07
2.25e-06 2.25e-06 0
2.25e-06 2.75e-06 0
2e-06 2e-06 5e-07
2e-06 2.5e-06 5e-07
2.25e-06 2.25e-06 2.5e-07
2e-06 2e-06 2.5e-07
2.25e-06 2.75e-06 5e-07
2.25e-06 2.25e-06 5e-07
1e-06 5.8e-06 5e-07
2e-06 6.1e-06 0
1e-06 5.8e-06 0
2e-06 6.8e-06 0
1.5e-06 5.95e-06 2.5e-07
1.5e-06 5.95e-06 0
1e-06 5.8e-06 2.5e-07
1.5e-06 6.3e-06 2.5e-07
2e-06 6.45e-06 0
1.5e-06 6.3e-06 0
2e-06 6.8e-06 5e-07
1.5e-06 6.3e-06 5e-07
2e-06 6.8e-06 2.5e-07
2e-06 6.45e-06 2.5e-07
2e-06 6.1e-06 5e-07
2e-06 6.45e-06 5e-07
2e-06 6.1e-06 2.5e-07
1.5e-06 5.95e-06 5e-07
7.07107e-07 4.10711e-06 5e-07
0 4.1e-06 0
7.07107e-07 4.10711e-06 0
3.53553e-07 4.10355e-06 2.5e-07
3.53553e-07 4.10355e-06 0
7.07107e-07 4.10711e-06 2.5e-07
3.53553e-07 3.75355e-06 2.5e-07
0 3.75e-06 0
3.53553e-07 3.75355e-06 0
0 4.1e-06 5e-07
3.53553e-07 4.10355e-06 5e-07
0 3.75e-06 2.5e-07
0 4.1e-06 2.5e-07
3.53553e-07 3.75355e-06 5e-07
0 3.75e-06 5e-07
1.64645e-06 3.14645e-06 2.5e-07
1.64645e-06 3.14645e-06 0
1.64645e-06 2.64645e-06 0
1.64645e-06 3.14645e-06 5e-07
1.64645e-06 2.64645e-06 2.5e-07
1.64645e-06 2.64645e-06 5e-07
1e-06 2e-06 2.5e-07
1e-06 2e-06 0
2e-06 1e-06 2.5e-07
2e-06 1e-06 0
1e-06 2e-06 5e-07
2e-06 1e-06 5e-07
3.5e-06 1e-06 5e-07
3.5e-06 1e-06 0
3.5e-06 0 0
3.25e-06 1e-06 2.5e-07
3.25e-06 1e-06 0
3.5e-06 1e-06 2.5e-07
3.5e-06 5e-07 2.5e-07
3.25e-06 5e-07 0
3.5e-06 5e-07 0
3.25e-06 1e-06 5e-07
3.25e-06 5e-07 2.5e-07
3.5e-06 0 5e-07
3.5e-06 5e-07 5e-07
3.5e-06 0 2.5e-07
3.25e-06 5e-07 5e-07
2.5e-06 1.25e-06 0
3e-06 1.5e-06 2.5e-07
3e-06 1.5e-06 0
2.75e-06 1.125e-06 2.5e-07
2.75e-06 1.625e-06 0
2.75e-06 1.125e-06 0
2.5e-06 1.25e-06 5e-07
2.75e-06 1.125e-06 5e-07
2.5e-06 1.25e-06 2.5e-07
2.75e-06 1.625e-06 2.5e-07
2.75e-06 1.625e-06 5e-07
3e-06 1.5e-06 5e-07
2.25e-06 1.625e-06 2.5e-07
2.25e-06 1.625e-06 0
2.25e-06 6.25e-07 2.5e-07
2.25e-06 6.25e-07 0
2.25e-06 1.625e-06 5e-07
2.25e-06 6.25e-07 5e-07
3.5e-06 2.75e-06 5e-07
4e-06 3e-06 0
3.5e-06 2.75e-06 0
3.5e-06 3.5e-06 0
3.75e-06 2.875e-06 2.5e-07
3.75e-06 2.875e-06 0
3.5e-06 2.75e-06 2.5e-07
3.5e-06 3.125e-06 2.5e-07
3.75e-06 3.25e-06 0
3.5e-06 3.125e-06 0
4e-06 3e-06 5e-07
3.75e-06 2.875e-06 5e-07
3.75e-06 3.25e-06 2.5e-07
4e-06 3e-06 2.5e-07
3.5e-06 3.5e-06 5e-07
3.5e-06 3.125e-06 5e-07
3.5e-06 3.5e-06 2.5e-07
3.75e-06 3.25e-06 5e-07
2.5e-06 3e-06 2.5e-07
2.5e-06 3e-06 0
2.75e-06 3.125e-06 2.5e-07
2.75e-06 3.125e-06 0
2.75e-06 3.125e-06 5e-07
2.5e-06 3e-06 5e-07
2e-06 1.1e-05 5e-07
2e-06 1e-05 0
2e-06 1.1e-05 0
2.5e-06 1e-05 0
2e-06 1.05e-05 2.5e-07
2e-06 1.05e-05 0
2e-06 1.1e-05 2.5e-07
2.25e-06 1.05e-05 2.5e-07
2.25e-06 1e-05 0
2.25e-06 1.05e-05 0
2.5e-06 1e-05 5e-07
2.25e-06 1.05e-05 5e-07
2.5e-06 1e-05 2.5e-07
2.25e-06 1e-05 2.5e-07
2e-06 1e-05 5e-07
2.25e-06 1e-05 5e-07
2e-06 1e-05 2.5e-07
2e-06 1.05e-05 5e-07
2e-06 4.7e-06 5e-07
2e-06 4.7e-06 0
2.5e-06 4.5e-06 0
2e-06 4.35e-06 2.5e-07
2e-06 4.35e-06 0
2e-06 4.7e-06 2.5e-07
2.25e-06 4.6e-06 2.5e-07
2.25e-06 4.25e-06 0
2.25e-06 4.6e-06 0
2.5e-06 4.5e-06 5e-07
2.25e-06 4.6e-06 5e-07
2.5e-06 4.5e-06 2.5e-07
2.25e-06 4.25e-06 2.5e-07
2.25e-06 4.25e-06 5e-07
2e-06 4.35e-06 5e-07
7.07107e-07 4.80711e-06 5e-07
7.07107e-07 4.80711e-06 0
2e-06 5.4e-06 0
7.07107e-07 4.45711e-06 2.5e-07
7.07107e-07 4.45711e-06 0
7.07107e-07 4.80711e-06 2.5e-07
1.35355e-06 5.10355e-06 2.5e-07
1.35355e-06 4.75355e-06 0
1.35355e-06 5.10355e-06 0
7.07107e-07 4.45711e-06 5e-07
1.35355e-06 4.75355e-06 2.5e-07
2e-06 5.4e-06 5e-07
1.35355e-06 5.10355e-06 5e-07
2e-06 5.4e-06 2.5e-07
1.35355e-06 4.75355e-06 5e-07
2.5e-06 5.2e-06 0
2e-06 5.05e-06 2.5e-07
2e-06 5.05e-06 0
2.25e-06 5.3e-06 2.5e-07
2.25e-06 4.95e-06 0
2.25e-06 5.3e-06 0
2.5e-06 5.2e-06 5e-07
2.25e-06 5.3e-06 5e-07
2.5e-06 5.2e-06 2.5e-07
2.25e-06 4.95e-06 2.5e-07
2.25e-06 4.95e-06 5e-07
2e-06 5.05e-06 5e-07
2.5e-06 5.9e-06 5e-07
2.5e-06 5.9e-06 0
2.25e-06 5.65e-06 2.5e-07
2.25e-06 5.65e-06 0
2.5e-06 5.9e-06 2.5e-07
2.5e-06 5.55e-06 2.5e-07
2.5e-06 5.55e-06 0
2.25e-06 5.65e-06 5e-07
2.5e-06 5.55e-06 5e-07
2.5e-06 4.85e-06 2.5e-07
2.5e-06 4.85e-06 0
2.5e-06 4.85e-06 5e-07
3e-06 5e-06 0
2.75e-06 5.1e-06 2.5e-07
2.75e-06 4.75e-06 0
2.75e-06 5.1e-06 0
3e-06 5e-06 5e-07
2.75e-06 5.1e-06 5e-07
3e-06 5e-06 2.5e-07
2.75e-06 4.75e-06 2.5e-07
2.75e-06 4.75e-06 5e-07
3e-06 5.7e-06 5e-07
3e-06 5.7e-06 0
2.75e-06 5.45e-06 2.5e-07
2.75e-06 5.45e-06 0
3e-06 5.7e-06 2.5e-07
3e-06 5.35e-06 2.5e-07
3e-06 5.35e-06 0
2.75e-06 5.45e-06 5e-07
3e-06 5.35e-06 5e-07
3.5e-06 2e-06 0
3.25e-06 2.375e-06 2.5e-07
3.25e-06 2e-06 0
3.25e-06 2.375e-06 0
3.5e-06 2e-06 5e-07
3.25e-06 2.375e-06 5e-07
3.5e-06 2e-06 2.5e-07
3.25e-06 2e-06 2.5e-07
3.25e-06 2e-06 5e-07
1e-06 4.05e-06 2.5e-07
1e-06 4.05e-06 0
1e-06 4.05e-06 5e-07
2.5e-06 1.2e-05 0
2.5e-06 1.15e-05 2.5e-07
2.5e-06 1.15e-05 0
2.25e-06 1.1e-05 2.5e-07
2.25e-06 1.15e-05 0
2.25e-06 1.1e-05 0
2.25e-06 1.1e-05 5e-07
2.25e-06 1.15e-05 2.5e-07
2.5e-06 1.2e-05 5e-07
2.25e-06 1.15e-05 5e-07
2.5e-06 1.2e-05 2.5e-07
2.5e-06 1.15e-05 5e-07
0 4.8e-06 0
5e-07 5.3e-06 2.5e-07
5e-07 5.3e-06 0
8.53553e-07 5.30355e-06 2.5e-07
3.53553e-07 4.80355e-06 0
8.53553e-07 5.30355e-06 0
8.53553e-07 5.30355e-06 5e-07
3.53553e-07 4.80355e-06 2.5e-07
0 4.8e-06 5e-07
3.53553e-07 4.80355e-06 5e-07
0 4.8e-06 2.5e-07
5e-07 5.3e-06 5e-07
0 5.5e-06 0
5e-07 5.65e-06 2.5e-07
5e-07 5.65e-06 0
0 5.15e-06 0
0 5.5e-06 5e-07
5e-07 5.65e-06 5e-07
0 5.15e-06 2.5e-07
0 5.5e-06 2.5e-07
0 5.15e-06 5e-07
2.5e-06 6.6e-06 0
2.25e-06 6.7e-06 2.5e-07
2.25e-06 6.35e-06 0
2.25e-06 6.7e-06 0
2.5e-06 6.6e-06 5e-07
2.25e-06 6.7e-06 5e-07
2.5e-06 6.6e-06 2.5e-07
2.25e-06 6.35e-06 2.5e-07
2.25e-06 6.35e-06 5e-07
2.5e-06 6.25e-06 2.5e-07
2.25e-06 6e-06 0
2.5e-06 6.25e-06 0
2.25e-06 6e-06 2.5e-07
2.5e-06 6.25e-06 5e-07
2.25e-06 6e-06 5e-07
3e-06 6.4e-06 0
2.75e-06 6.5e-06 2.5e-07
2.75e-06 6.15e-06 0
2.75e-06 6.5e-06 0
3e-06 6.4e-06 5e-07
2.75e-06 6.5e-06 5e-07
3e-06 6.4e-06 2.5e-07
2.75e-06 6.15e-06 2.5e-07
2.75e-06 6.15e-06 5e-07
2e-06 5.75e-06 2.5e-07
2e-06 5.75e-06 0
2e-06 5.75e-06 5e-07
2.5e-06 7.3e-06 5e-07
2.5e-06 7.3e-06 0
2.25e-06 7.05e-06 2.5e-07
2.25e-06 7.05e-06 0
2.5e-06 7.3e-06 2.5e-07
2.5e-06 6.95e-06 2.5e-07
2.5e-06 6.95e-06 0
2.25e-06 7.05e-06 5e-07
2.5e-06 6.95e-06 5e-07
0 7.5e-06 5e-07
0 7.5e-06 0
1.29289e-06 6.79289e-06 0
0 6.5e-06 2.5e-07
0 6.5e-06 0
0 7.5e-06 2.5e-07
6.46447e-07 7.14645e-06 2.5e-07
6.46447e-07 6.14645e-06 0
6.46447e-07 7.14645e-06 0
1.29289e-06 6.79289e-06 5e-07
6.46447e-07 7.14645e-06 5e-07
1.29289e-06 6.79289e-06 2.5e-07
6.46447e-07 6.14645e-06 2.5e-07
6.46447e-07 6.14645e-06 5e-07
0 6.5e-06 5e-07
1.07812e-06 9.25e-06 5e-07
2e-06 8.5e-06 0
1.07812e-06 9.25e-06 0
1.53906e-06 8.875e-06 2.5e-07
1.53906e-06 8.875e-06 0
1.07812e-06 9.25e-06 2.5e-07
1.53906e-06 9.625e-06 2.5e-07
2e-06 9.25e-06 0
1.53906e-06 9.625e-06 0
2e-06 8.5e-06 5e-07
1.53906e-06 8.875e-06 5e-07
2e-06 9.25e-06 2.5e-07
2e-06 8.5e-06 2.5e-07
1.53906e-06 9.625e-06 5e-07
2e-06 9.25e-06 5e-07
2.5e-06 8e-06 5e-07
2e-06 7.5e-06 0
2.5e-06 8e-06 0
2.25e-06 7.75e-06 2.5e-07
2.25e-06 7.75e-06 0
2.5e-06 8e-06 2.5e-07
[...]
   <PointData Scalars="Potential" >
    <DataArray type="Float32" Name="Potential" format="ascii">
0 0 0 0 0.000113495 0 2.13051e-05 2.7716e-05 0 0 0 0 2.64806e-05 8.85731e-05 0 0.000355595 4.66099e-05 0.0004467 0.012091 0 0 0 0.00581865 0 0.00651703 0.00502861 0 0 0 0.0101861 0.000109497 0.00430116 0.0125875 0.00996659 0.00621545 0.0115656 0.0420503 0 0 0.0307051 0 0.0217704 0.0181921 0 0 0.0428693 0.056208 0.011375 0.0225095 0.0331553 0.0208045 0 0 0.0174642 0 0.0336101 0 0 0.101741 0.0675627 0.0500183 0.0252643 0 0.0504121 0.00546257 0.0326823 0 0 0 0 0.000336355 0 0.000115732 0.000448502 0 0 0 0.0012403 1.76232e-05 0.000228344 0 0 0.00014333 0.00139054 0 0 0 0.000450273 0 0.00150558 0.00406922 0 0 0 0 0.000815138 0.000311655 0 0 0 0 0 0 5.74983e-05 0 1.67297e-05 2.79977e-05 0 0 0 0 3.66429e-05 0.000138426 0 0.000326141 1.39471e-05 0.000256704 0 0.0672944 0 0.0464364 0 0 0.13018 0.140824 0.0400224 0.0637281 0.0947089 0.0809139 0 -0.000100844 0 0.000168762 0 0 0 0 3.26943e-05 0.000374169 0 0 0.248013 0 0 0 0.0803927 0 0.120138 0.0784145 0 0 0 0.163412 0.00651859 0.0101729 0 0 0.0065074 0.166114 0.189762 0 0 0.10579 0 0.0923515 0.0850657 0 0 0.228593 0.21896 0.0889502 0.110286 0.171775 0.185062 0.00973242 0 0 0.0183019 0.00538412 0.0101262 0.00685492 0 -2.85012e-05 0 0.0112631 0 0 0 0 5.89813e-06 0 2.25436e-05 3.50252e-05 0 0 0 1.20417e-05 0 0 6.22697e-06 0 0 3.63663e-05 0 7.39459e-05 0 0 0 0.000231494 1.9192e-05 7.12974e-05 0.000277981 0 5.48681e-05 0 1.14068e-05 0 0 0 0 0 0 0 0.000101071 0 2.43441e-05 4.43131e-05 0 0 0 0.000293677 9.77465e-05 4.22627e-05 0 0 3.18527e-05 0.000363379 0.000149727 0 0.000127885 0 0.000268442 0 0 0 0 0 0.00228807 0 0.000305575 0.000489334 0 0 0 0 0.000359383 0.000346978 0 0 0.00174331 0 0 0 0 0.00712736 0 0.00730776 0.00154488 0 0 0 0 0.000636573 0.00139269 0 0 0.254973 0 0 0.111335 0 0.123823 0.085171 0 0 0.227838 0.0773339 0 0.181945 0.00651839 0.157646 0 0.00758516 0 0.00148465 0 0 0 0 0.00076324 0.00158048 0 0 0 0 0.00167635 0 0.00100859 0.000882723 0 0 0 0.000614567 0 0 0 0.000342948 0 0 0 0.00160195 0.000214379 0.00022885 0.0004648 0 0 0.000845463 0 0.000514415 0.000170494 0 0.00409215 0 0 1.07504e-05 0 0 0 0 2.07867e-05 8.78081e-06 0 0.0714592 0 0.147283 0 0.000166186 0 0.00017756 0 0 0 0.000260606 0 0 0.000254798 0 0 0.138195 0 0.125568 0 0 0.258572 0.134718 0.281637 0.275199 0.137314 0.281838 0 0.138756 0 0 0.293526 0.280811 0.144511 0.14423 0.292462 0 0.00160745 0 0 0 0 0.00126314 0.00191641 0 0.00143806 0 0 0.00155399 0 0 0 0.00245601 0 0 0 0.0108359 0.000731496 0.0020241 0.00919137 0.00851873 0 0 0 0 0.00192029 0 0.00122366 0.00165946 0 0 0 0.166303 0 0 0.122262 0 0.0831088 0.0931498 0 0 0.185494 0.194695 0.0885842 0.125863 0.258824 0.244683 0.0664153 0 0 0.0267946 0 0.0324014 0.0176895 0 0 0 0.0473833 0.00358026 0.00144231 0.0370823 0 0 0 0 0.000891446 0 0.00102116 0.00143905 0 0 0 0 0.000949149 0.00326578 0 0 0 0 0.000625962 0 0.000347851 0.00105388 0 0 0 0.0110419 0 0 1.38885e-05 0 0 0 0.00259819 0 0 0 0.0111239 0.000837155 0.0025677 0.0107636 0.10576 0 0.222282 0.000956686 0 0 0 0.000577091 0 0.000184921 0 0 0 0 0.000196181 0.000136985 0 0 0 0.00258353 0 0 0 0.0107837 0.000744535 0.00264631 0.0111113 0 0.000990135 0 0.000276341 0 0 0 0 0.000602382 0.000322951 0 0 0 0.000251162 0 0 0 0 0.000419903 0.000242726 0 0 0 0.000396225 0 0.00024389 0.00129738 0 0 0.00361824 0.000520457 0 0.00236427 0 0 0 0.000222465 0 5.44515e-05 0.000116262 0 0 0 0.000673993 0.000232413 7.5326e-05 0 0.000846537 0 0 0 0 0.000315699 0 0.000440556 0.000458063 0 0 0 0.00100562 0.00042885 9.16974e-05 0 0 0.000470588 0.00140734 4.15063e-05 0 0 0 9.48033e-06 0 0 0 0.00206835 0 0.000511208 0.00095753 0 0.00864645 0 0 0 0 4.93318e-05 0 2.37265e-05 8.14757e-05 0 0 0 0 0.000116501 3.99934e-05 0.000272756 0.000401295 0 0.000238395 0 0 0 0 0.000637598 0.000337919 0 0 0.00137726 0.00666341 0 0 6.38113e-05 0 0.000107454 0 0 0 0 0.00016062 0.000332696 0 0 0.000276662 0 0 0.000114716 0 0 0 0 6.47779e-05 6.55146e-05 0 0 7.1167e-05 0 4.66078e-05 0 0 0 0 5.68645e-05 0.000139824 0.000307557 0.000255345 7.55502e-05 0 0 5.58421e-05 0 0.000314883 0 0 0 0 0.00112723 0 0.000148055 0.000161534 0 0 0 0 0.00044154 0.00112999 0 0 0.000211334 0 9.66161e-06 0 0 0 1.91944e-05 0 4.13307e-05 0 0 0 3.68547e-05 0 0 0.000196298 0 0 0.000146994 0 0 8.63831e-05 0.000797405 6.55854e-05 0 0.000228868 0 0 0.00158408 0.000107716 0.000419046 0 0.000387188 0 0 0 0.00126854 0 0 0 0.00664213 0.000567375 0.000739853 0.00404443 0.00115872 0 0 0 0.00254962 0 0 0 0.0111332 0.0011385 0.00248553 0.0107203 0 0.000925091 0 0.00233547 0 0 0 0.0108191 0.00075537 0.00191187 0.00914167 0 0.000222963 0 0 0.000362152 0 0 0.0194262 0 0 0 0.0104055 0 0.00959541 0.00952544 0 0 0.0213317 0.0168415 0.0108822 0.0212588 0.0719057 0.0440302 0.0383901 0.020664 0.0839617 0 0 0.0410618 0 0.0413943 0.0614857 0 0 0.182744 0.121228 0.0916015 0.0645363 0.122882 0.0764609 4.73038e-05 0 0 0 6.12111e-05 0 0 0.000674693 0 0.000193759 0 0 0 0 0.00065687 0.000270956 0 0 0 0 0.000374088 0 0.00123746 0.00124633 0 0 0 0.00111466 0 0 0 0.00090014 0 0 0 0 0.00349811 0.000555638 0 0.000766818 0 0 0.000425258 0 0 0.0216911 0 0.0441625 0.000614845 0 0 0 0 0.00266899 0 0.00139496 0.00139965 0 0.0111156 0 0 0.00751443 0 0.00668618 0 0 0.0159131 0.000454553 0 0.015294 0.000411168 0 0 0 0 0.000184824 0 0.000268867 0.0008358 0 0 0 7.0292e-05 0 0 0.000690813 0 0 0 0.00133897 0 0.00644323 0.00545203 0 0 0 0 0 0.00216666 0 0.00133001 0.00159574 0 0 0.00864757 0.00264286 0 0.0108008 0.00122453 0 0 0 0 0.00210329 0 0.00872279 0.0103422 0 0 0 0.00155227 0 0 0.188793 0 0 0 0.115503 0 0.0896111 0.127674 0 0 0.294021 0.261608 0.143758 0.140605 0.268802 0.289136 0.131699 0.239151 0.00202394 0 0 0.00650883 0 0.000711817 0 0 0 0 0 0 0.000448319 0 0.00136417 0.000208239 0 0 0 0.000205084 0 0 0.000187587 0 0 0.00109941 0 0 0 0 0.00322202 0.00181775 0 0 0 4.09316e-05 0 9.36552e-05 0 0 0 0 5.70539e-05 0.000151057 0 0 0.000119081 0 0 0 0.00246223 0 0.00992252 0.0128453 0 0 0 0 0 0.000651015 0 8.35208e-05 -2.82345e-05 0 0 0 0.000117184 0 0 0.210435 0 0 0.132473 0 0.100756 0.132763 0 0 0.276524 0.272009 0.134749 0.140948 0.289292 0.272039 0 0 0.000246179 0 7.34484e-05 0.000117913 0 0 0.00100673 0.000253068 0 0.00145484 0 0.0772544 0 0 0.132196 0.164534 0.0992147 0.0621069 0.202563 0 0 0 1.83822e-05 0 4.87411e-05 2.17059e-05 0 0 0 0 2.90689e-05 3.64055e-05 0 0 0.196544 0 0 0.128337 0 0.0953263 0.121563 0 0 0.234824 0.241265 0.114894 0.12753 0.259397 0.262013 0 0 0.000100222 0 0.000118322 0 0 0 0.000323517 3.81011e-05 8.11716e-05 0 0 4.8645e-05 0.000387036 0.000143361 0 0.000402694 0 0 0.000237242 0.000199341 0 0.000352162 0.0965982 0 0.203145 0 0.0553111 0 0.035764 0 0 0.0912523 0.0752688 0.045695 0.0609777 0.128281 0.117839 0.0584786 0 0.0990535 0 0 0.207429 0.0625854 0.128482 0.126652 0 0.00190645 0 0 0.0327718 0 0 0.00241847 0.0735547 5.376e-05 0 0 0.000105266 0 0.000321472 8.60736e-05 0 0.000131341 0 0 0 3.51343e-05 0 0 0.0765241 0 0 0.114132 0.232547 0.156102 0.0521756 0 0.110711 0 0.00445293 0 0 0.0112126 0.00933499 0.00550657 0.00405711 0.00944615 0 0.0014136 0.00546834 0.0384388 0 0 0.0173069 0 0.019077 0.0136575 0 0 0.0332043 0.00121202 0 0.0313283 0.000951531 0 0.0134895 0 0.00578529 0 0.00668087 0.00512792 0 0 0.011268 0.000237088 0.0102779 0 0 0.0141448 0 0.0166084 0 0 0.0276529 0.0120858 0.0311819 0.0331199 0.0153638 0.0256787 0.00146117 0 0.000294222 0 0 0 0.000544969 0 0 0 0 0 0.00144131 0 0.00120962 0.00138657 0 0 0 0.00371196 0.00153202 0.00026852 0 0.00550157 0 0.000511273 0 0.0001119 0 0 0 0 0.000127766 0.000207216 0 0 7.25334e-05 0 0 0 0.000279012 0.00151943 0 0 0.0018078 0 0.00824654 0.0136657 0 0 0 0.00204783 0 0 0.000687274 0 0.000704651 0 0 0 0.000775741 0.00289476 0.00232 0.000255589 0 0 0.05139 0 0.00679676 0 0 0.107286 0.0448216 0 0.0914321 0.00151391 0 0 6.64766e-05 0 0 0 7.83398e-06 0 0 8.90633e-05 0 7.68085e-05 0 0.000207924 3.99295e-05 0 0 7.89881e-05 0 0 0.000114722 0.000426067 0 0 0.000109559 0 0.0078621 0 0 0.016105 0.00692356 0.0137395 0 0.00549502 0.0088586 4.87684e-05 0 0 0 9.46774e-05 0 0 5.61555e-05 0 0.000314888 5.39646e-05 0 0 2.88622e-05 0 2.54191e-05 0 0 6.48788e-05 0 0 6.80897e-05 0 0 0 0.0135323 0.0248274 0.000124379 0 0 0.000187372 0 0 0 0.0239721 0 0 0.0678253 0.049336 0.0227352 0.0337042 0.0448707 0.000241929 0 0 0 0.000613914 0.00269189 0.0721389 0 0.0585788 0 0.123341 0.155651 0.00109671 0 0 0 0.000421292 0.000963079 2.42068e-05 0 0 0.000367646 0 0 0.00097694 0.000134902 0 0 0.000938753 0 0.00677361 0 0 0 0.0779028 0.154497 0.0592321 0 0.132777 0.0383908 0 0.0696866 0.09173 0 0.191885 0.12308 0 0.25254 0 0.127469 0.260983 0.0565124 0 0.114186 0.0560753 0 0.0526315 0 0.101231 0.118099 0.0059047 0 0.0116855 0.00907239 0 0.0160052 0.0305644 0 0.0192859 0 0.0660616 0.0435138 0.0429312 0 0.0308343 0 0.0913093 0.0686676 0.0493328 0 0.110655 0.057768 0 0.120101 0.0589876 0 0.128687 0.000334439 0 0 0.000175808 0 0.00103622 0 0 0 0.0346361 0 0 0.0706773 0.0251357 0.0540247 0.00595433 0 0.0119341 0.0530211 0 0.104696 0 0.00103655 0 0 0 0 0 0.000842733 0 0.00429096 0 0.00469262 0.015445 0.0163865 0.0150685 0.0153385 0 0.0221218 0 0.0140699 0.0265515 0.0205558 0.0193808 0.022536 0.0582614 0.0798524 0.0542756 0.0417851 0.0703448 0.0813859 0.0305937 0.0604856 0.0420055 0.0299636 0.0440525 0.0918652 0.190801 0.1066 0.148143 0.07006 0 0.0850124 0 0.04575 0 0.00448464 0 0.00437922 0 0.0152593 0 0 0 0 0 0.022905 0 0.000673061 0 0 0 0 0 0.00163672 0 0.00316308 0 0.00409592 0.215874 0.136962 0.30118 0.305372 0.119244 0.207174 0.180243 0.157736 0.572765 0.277015 0.396393 0.277932 0 0.436102 0 0 0 0 0 0.431461 0.431075 0.346842 0.299698 0.276427 0.532551 0.507733 0.29634 0.365726 0.395595 0.451029 0 0.0247533 0 0 0.0270752 0.0146298 0 0 0 0.0184535 0.0167544 0 0.0208175 0 0 0.000992734 0 0.00352886 0 0.000892879 0.00428934 0 0 0.00124897 0 0 0 0.00437667 0.00115814 0 0 0 0 0.00507948 0 0 0 0.00144477 0.00499852 0 0.57535 0.36377 0.401827 0.293685 0.523879 0.260186 0 0.460587 0 0.374719 0 0 0 -0.000505444 0 0.00365387 0 0.00080861 0 0.00360198 0 0 0 0.00594965 0 0 0.0370783 0 0.22819 0.314145 0.437832 0.410653 0.584368 0.426419 0.602948 0.594559 0.435076 0.606353 0.434565 0.618976 0.606843 0.448123 0.451178 0.618611 0 0 0 0.0258968 0 0.127668 0 0.0197423 0 0.102081 0 0 0.322617 0.369609 0.244423 0.293146 0.479396 0.407267 0.314991 0.402665 0.558902 0.492112 0.146456 0.0834942 0.104114 0.0593044 0 0.117299 0 0 0 0.0940883 0 0 0 0 0 0.0263277 0 0.12361 0 0.0284338 0.134759 0 0.361477 0.540808 0 0 0 0 0 0.0287387 0 0.132311 0 0.0290588 0.137735 0 0 0 0 0.00470411 0 0.0173521 0 0.0566332 0 0 0 0 0 0.0383507 0 0.00289402 0 0 0 0.0104705 0.0025453 0 0 0.0126527 0 0.00396691 0 0 0 0.0167845 0.00444442 0 0 0 0 0.0210552 0 0.0244658 0 0 0.11849 0 0 0 0 0.000877692 0 0 0.00109847 0 0 0.00412072 0 0.00358306 0 0.0114168 0 0.0657851 0 0 0.000768942 0 0 0 0 0.00152473 0 0.00301308 0 0.00382379 0.000874538 0 0 0.00461228 0.00217604 0 0 0 0 0.0122028 0 0 0 -0.000512814 0 0.00359582 0 0.000844489 0 0.00374589 0 0 0 0 0 0.0114141 0 0.0657878 0 0.00593744 0.0370642 0 0 0 0 0.0263227 0 0.123573 0 0.0284179 0 0.134721 0 0 0 0.0258796 0 0.127592 0 0.0197306 0.102058 0 0 0 0.0404846 0.0297878 0.0296786 0.0273511 0.0305239 0.0380945 0.0275745 0.0539894 0.0835859 0.0546886 0.0863123 0.0421998 0.169586 0.10555 0.127437 0.173829 0.341022 0.21789 0.267513 0.169416 0.186113 0.113058 0 0 0.0642264 0.0812939 0 0.0290661 0 0 0.137751 0 0.0246344 0.0230141 0 0.0358382 0 0 0 0.0343753 0 0 0 0 0 0.0244513 0 0 0 0.118235 0.0287389 0 0 0.132213 0 0 0.49652 0.375533 0.322305 0.409793 0.620527 0.578755 0.449605 0.440884 0.563623 0.607273 0.409355 0.541321 0.525444 0.424846 0.349914 0.423413 0.597937 0.593601 0.427849 0.442254 0.610211 0.592372 0 0.0025995 0 0 0 0.0151447 0.000850248 0 0 0 0 0.0117544 0.285593 0.371535 0.452933 0.31736 0.233339 0.443855 0.489084 0.410698 0.327855 0.383814 0.530937 0.536789 0.37476 0.407762 0.575044 0.57765 0 0.00127329 0 0.00124358 0 0.00434891 0 0 0 0 0 0.00596575 0.0011607 0 0 0.00425274 0.000746549 0 0 0.00325343 0.339954 0.515927 0 0.175091 0 0.111789 0.179076 0.152222 0.135385 0.189348 0.262084 0.244263 0.213043 0.343423 0.516822 0.226204 0 0.375224 0 0.35065 0 0.105352 0 0 0 0.146542 0 0.000806507 0 0.00350499 0.238365 0.349034 0.482221 0.316497 0.179104 0.273847 0 0 0 0.0142944 0.0235976 0.0202533 0.0171525 0.0138656 0 0.0203599 0 0 0 0.0184163 0 0.0828014 0.0784397 0.0525253 0.0579792 0.0462155 0 0.0712082 0 0 0 0.0681218 0 0 0.027718 0.0177442 0.020403 0.0160941 0 0.0242411 0 0 0.0223311 0 0.0436861 0.0500747 0 0.0603176 0.0385375 0 0.0649963 0.0680005 0.0475667 0.054209 0 0.0171376 0 0 0 0.0559871 0.0183507 0 0 0.0823227 0 0.00164215 0 0 0 0.0120419 0 0.00638522 0 0.00687711 0 0.0408153 0 0.0258017 0 0 0 0.186132 0 0 0.29602 0.151197 0 0 0 0.227149 0 0 0 0 0 0 0 0.00101639 0.00321423 0 0 0 0 0.00128162 0.00499941 0 0.0243782 0.033259 0.0216992 0.0301928 0.0132901 0.0181363 0 0 0.000385776 0 0 0.00489526 0 0 0 0 0 0 0 0 0 0 0 0.0405084 0 0.0556055 0 0 0.0737541 0.135257 0.0997472 0.0697672 0.101172 0.0957628 0 0 0.00503188 0.0261924 0.239561 0.186051 0.263338 0 0 0 0 0.334499 0 0 0 0 0 0.00483959 0 0.00969919 0.00408762 0.0142031 0 0 0 0 0 0 0.234246 0.321723 0 0 0.200844 0 0 0 0 0.295295 0.109866 0.144073 0 0 0.315639 0.474738 0 0 0.398028 0.565139 0.408428 0.573112 0.171033 0.230293 0.207474 0.189608 0.312316 0 0 0.350065 0.013935 0 0 0 0 0.0178685 0.0267029 0 0.0229523 0 0 0 0.118086 0.0668795 0 0.193433 0 0 0.117661 0 0.174709 0.125417 0 0.307909 0 0 0.24251 0 0.196018 0.356174 0.217965 0 0.360111 0 0 0 0.220858 0.382481 0 0 0 0 0 0 0 0 0 0 0 0 0 0 0.107019 0.144318 0.0817627 0.114066 0 0 0.0180662 0.0244676 0 0 0.156448 0.206469 0.0324946 0.0171359 0.0165359 0.0159488 0.0285641 0.0306306 0.0145342 0.0167142 0.0324708 0.0306845 0.0165624 0.0325266 0 0.0256312 0.00932432 0.0272529 0.0257983 0.035867 0.0131022 0.0288012 0.0416319 0.0371979 0.0337907 0.0322361 0 0.0559389 0.038881 0.026492 0 0 0.0271787 0.0765609 0 0 0.0342277 0.0836688 0 0 0.147438 0.0643838 0 0 0.012625 0 0.116927 0.076297 0.0600125 0.0579071 0.0915361 0.103035 0.0477047 0.0636951 0.173348 0.11996 0.0919897 0.140741 0.031802 0.0154748 0 0.0185763 0.0137113 0 0.030854 0.0307453 0.0113758 0.0153108 0.024528 0.0213878 0.0246473 0.0132218 0.0125616 0.0125249 0.023322 0.0236997 0.0120442 0.0128674 0.0243344 0.0238995 0.0124803 0.0243245 0.387862 0.165128 1 0.481105 0.238544 0.549943 0 0.359221 0.020343 0.0170363 0 0 0.0319172 0.0342937 0.0168566 0.0165201 0.0330911 0.0321347 1 0.664959 0.769242 0.689933 1 1 0.509445 0.488786 1 0.875916 0.509633 0.901612 1 0.726022 0.651679 0.607051 1 1 0.68586 0.740353 1 1 0.0265774 0.021485 0.0238712 0.0320001 0.0239984 0.0158103 0.0318297 0.0282892 0.0241227 0.0123467 0 0.0126942 0.0118319 0 0.0241709 0.0118489 0.022606 0.0229676 0.0115989 0.0231362 0.0136048 0.0139877 0.0268471 0.0258387 0.0138564 0.0147299 0.027687 0.0263448 0.0151608 0 0.0133454 0 0.0289924 0.0259966 0.0316152 0.017448 0.0160254 0.0172156 0.0328256 0.0323612 0.0182471 0.0168752 0.0354952 0.033719 0.0177513 0.0345369 0.0169505 0.0176769 0.0335141 0.0331666 0.108397 0.0678662 0.056603 0.0694275 0 0 0.178537 0.133359 0.0945296 0.0865082 0.158233 0.163856 0.0855356 0.129759 0 0.0394532 0.0801916 0.0250439 0 0 0 0 0.00761054 0.0109926 0 0 1 0.725388 0.768596 0.696055 1 0.596947 1 1 0.437101 1 0.23813 0.227157 0 0 0 0.431499 0.0623671 0.0679846 0 0.437984 1 0.422086 0 0.437318 0.239623 1 0.426816 0.0156388 0 0.023968 0 0 0.00638323 0.00913625 0 0 0.0756046 0.0632473 0.0188991 0 0 0.0152392 0 0 0.0276592 0.0299281 0.0141738 0.0141734 0.027969 0.41598 0.475403 0.0537141 0.0565237 0 0 0.110422 0.0499748 0.0883511 0.0964048 0.0462802 0.100651 0.791854 0.766769 0.938813 0.780196 1 0.936503 0.790041 1 0.795864 1 1 0.80185 0.801203 1 0.453933 0 0 1 0.867255 0.499826 0.481268 1 0.493701 0 0.476457 1 1 0.500783 1 1 0.437005 0.443979 1 0.50213 1 1 0.490064 0 0.497323 0.475051 1 0.841784 0.443606 0.615307 0.385805 0.503351 1 0.571492 0.71303 0.764964 1 0.672335 0.232494 0.188853 0.189183 0.140314 0.354248 0.275035 0.129319 0.195709 0.193167 0.229393 1 0.460518 0 0.475772 0.501801 0 1 1 0.490738 0.496116 1 1 0.335195 0.112538 0 0.185606 0.188865 0 0.338855 0.213814 0.513207 1 0.0130957 0 0.0257241 0.476864 1 0.877061 0.496781 0.501679 1 0.754774 1 0.495459 1 0.245911 0.226481 0 0 0 0.430954 0.0625517 0.0664509 0 0.428487 0.510833 1 1 0.492695 0.514825 1 0.479563 0.449541 0 0 1 0.866132 0.498632 0.475096 1 0.841802 0.473345 0 0 1 1 0.436541 0.420777 1 0.324913 0.134658 0.178408 0.190666 0.330848 0.131903 0.240079 0.236502 0.0783381 0.041572 0.0402643 0.0434177 0.0738053 0.0762726 0.0439903 0.0382379 0.0837593 0.0811818 0.114941 0.0569552 0.061273 0.0746916 0.100565 0.107946 0.0709639 0.0523959 0.183217 0.14049 0.0980919 0.130918 0.0444765 0 0 0.0867474 0.0487372 0.0949937 1 0.474804 0.472392 0.500791 1 1 0.0236777 0.0133226 0.0119692 0.0136037 0.0272103 0.0252425 0.0149056 0.01398 0.0253904 0.0274841 0.485245 0 0 1 1 0.49587 0.486439 1 0.243946 0.436084 0.0119081 0 0.013106 0 0.0280039 0.0253629 0.0144914 0.0132777 0.0241316 0.0251527 0.0126959 0.0232153 0.0219636 0 0 0 0 0.00637419 0.00818331 0 0.0123475 0.0121239 0.0226244 0.0229053 0.0117338 0.0122139 0.0226136 0.0229313 0.0159952 0.0154551 0.029859 0.029469 0.0405339 0.0144274 0.0205804 0.0122736 0 0 0 0.0277795 0.00874506 0.00915827 0 0.0254171 0.00675776 0 0.0160328 0 0 0.0318451 0.0169445 0.0337799 0.0130048 0 0.0250863 0.0127269 0.0248939 0.0396618 0.03668 0.0695223 0.0706301 0.035976 0.0728707 0.0146277 0.0240609 0 0.00926105 0 0 0.239422 0.426728 0.243886 0 0.436123 0.0635006 0.0756192 0 0.473584 0.841032 0.476847 1 0.877044 0.497967 0.501495 1 0.492388 0.500627 1 1 0.437526 0.443837 1 1 0.0191341 0 0.0226368 0 0 0.0625498 0.0497999 0.0511082 0.0510164 0 0.0689494 0.0209572 0.0368723 0 0 0.0496602 0.0708493 0 0.0731946 0.133502 0.193243 0 0 0.279813 0.152091 0 0 0.0153619 0 0 0.0299118 0.0139797 0.0273097 0.297 0.280755 0 0 1 0.540091 0.474743 0.451906 1 0.526264 0 0.0675354 0 0.0677396 0.0174301 0 0 0.496129 1 0.475587 0 0 1 1 0.44669 0.422405 1 0.242768 0 0.229401 0.441812 0.43172 0.0564005 0 0.246258 0.428783 1 0.51474 0.494773 0.480461 1 0.842459 0.0480308 0.0454039 0.0643365 0.0219463 0.0415292 0.05682 0.0215718 0.0439451 0.0725992 0.0357832 0 0.037617 0.0371492 0 0.0694911 0.0354982 0.0705629 0.0710314 0.0371193 0.0687707 1 0.478552 0 0.508679 0.510205 1 1 1 0.473959 0.473919 0.502412 1 0.510818 1 1 0.499783 1 1 0.491829 0 0.51754 0.501119 0 1 0.455367 0.86479 0.868921 1 0.750029 0.721689 0.769104 1 1 0.803751 0.789 1 1 0.729459 1 0.48992 0 1 0.29763 0.28977 0 0.557066 0.576375 0.138434 0.0579854 0 0.0748735 0.0651365 0 0.12404 0.0533221 0.0974533 0.101359 0.0509181 0.110727 0.0784248 0 0 0.201638 0.146381 0.113167 0.103856 0.190383 0.0409249 0 0.0400655 0 0.0835952 0.0794438 0.0401789 0.0435056 0.0746575 0.0757061 0.0387924 0.0782982 1 0.45645 0 0.493506 0.523803 1 1 0.0339253 0.0195656 0.0175458 0.0167067 0 0 0.0328712 0.0185577 0.0363601 0.0378317 1 0.778529 0.740823 0.782346 1 1 0.786428 0.77178 0.945351 0.92709 0.0905682 0.0502993 0.0465511 0.0453423 0.0922112 0.0497643 0.0854328 0.0901326 0.686002 1 1 0.642887 0.620694 1 0.0315068 0.0175805 0 0.0155331 0.0155758 0 0.0330701 0.032003 0.0162197 0.0186176 0.0364692 0.0350638 1 0.776591 0.712869 0.738103 1 1 0.745051 0.767495 1 1 0.0196394 0.0176014 0.0353257 0.0342095 0.0174435 0.0193862 0.0385947 0.0388392 0.0195468 0.0375543 0.0158354 0.0124309 0.0310968 0.0108135 0.0202177 0.0214197 0.721273 0.928565 0.302206 0.19636 0.245157 0.235467 0.21386 0.316404 0.397055 0.382891 0.605563 0.739584 1 0.66797 1 1 0.0681359 0.185245 0.126584 0.127518 0.0688082 0.219621 0.0124944 0.0116872 0.0216213 0.0234715 0.020705 0 0.0181402 0 0.0371624 0.040673 0.0105039 0 0.0220133 0.403021 0.532681 0.591995 0.465144 0.355145 0.469403 0.0267625 0.0355005 0.0339507 0.0294056 0.0265319 0.0324826 0.295086 0.551728 0.118084 0.0947