<?xml version="1.0"?>
<VTKFile type="UnstructuredGrid" version="0.1" byte_order="LittleEndian">
 <UnstructuredGrid>
  <Piece NumberOfPoints="9428" NumberOfCells="5400">
   <Points>
    <DataArray type="Float32" NumberOfComponents="3" format="ascii">
3e-06 2.75e-06 5e-07
2.5e-06 2.5e-06 0
3e-06 2.75e-06 0
3e-06 2e-06 0
2.75e-06 2.625e-06 2.5e-07
2.75e-06 2.625e-06 0
3e-06 2.75e-06 2.5e-07
3e-06 2.375e-06 2.5e-07
2.75e-06 2.25e-06 0
3e-06 2.375e-06 0
3e-06 2e-06 5e-07
3e-06 2.375e-06 5e-07
3e-06 2e-06 2.5e-07
2.75e-06 2.25e-06 2.5e-07
2.5e-06 2.5e-06 5e-07
2.75e-06 2.25e-06 5e-07
2.5e-06 2.5e-06 2.5e-07
2.75e-06 2.625e-06 5e-07
0 2e-06 5e-07
0 0 0
0 2e-06 0
2e-06 0 0
0 1e-06 2.5e-07
0 1e-06 0
0 2e-06 2.5e-07
1e-06 1e-06 2.5e-07
1e-06 0 0
1e-06 1e-06 0
2e-06 0 5e-07
1e-06 1e-06 5e-07
2e-06 0 2.5e-07
1e-06 0 2.5e-07
0 0 5e-07
1e-06 0 5e-07
0 0 2.5e-07
0 1e-06 5e-07
1.29289e-06 3.29289e-06 5e-07
0 2.7e-06 0
1.29289e-06 3.29289e-06 0
6.46447e-07 2.99645e-06 2.5e-07
6.46447e-07 2.99645e-06 0
1.29289e-06 3.29289e-06 2.5e-07
6.46447e-07 2.64645e-06 2.5e-07
0 2.35e-06 0
6.46447e-07 2.64645e-06 0
0 2.7e-06 5e-07
6.46447e-07 2.99645e-06 5e-07
0 2.35e-06 2.5e-07
0 2.7e-06 2.5e-07
6.46447e-07 2.64645e-06 5e-07
0 2.35e-06 5e-07
2e-06 4e-06 0
1.29289e-06 3.99289e-06 0
1.64645e-06 3.64645e-06 2.5e-07
1.64645e-06 3.64645e-06 0
1.29289e-06 3.64289e-06 2.5e-07
1.64645e-06 3.99645e-06 0
1.29289e-06 3.64289e-06 0
1.29289e-06 3.99289e-06 5e-07
1.29289e-06 3.64289e-06 5e-07
1.29289e-06 3.99289e-06 2.5e-07
1.64645e-06 3.99645e-06 2.5e-07
2e-06 4e-06 5e-07
1.64645e-06 3.99645e-06 5e-07
2e-06 4e-06 2.5e-07
1.64645e-06 3.64645e-06 5e-07
2.5e-06 1.1e-05 5e-07
3e-06 1.05e-05 0
2.5e-06 1.1e-05 0
3e-06 1.225e-05 0
2.75e-06 1.075e-05 2.5e-07
2.75e-06 1.075e-05 0
2.5e-06 1.1e-05 2.5e-07
2.75e-06 1.1625e-05 2.5e-07
3e-06 1.1375e-05 0
2.75e-06 1.1625e-05 0
3e-06 1.225e-05 5e-07
2.75e-06 1.1625e-05 5e-07
3e-06 1.225e-05 2.5e-07
3e-06 1.1375e-05 2.5e-07
3e-06 1.05e-05 5e-07
3e-06 1.1375e-05 5e-07
3e-06 1.05e-05 2.5e-07
2.75e-06 1.075e-05 5e-07
2e-06 3e-06 5e-07
2.5e-06 3.5e-06 0
2e-06 3e-06 0
2.25e-06 3.25e-06 2.5e-07
2.25e-06 3.25e-06 0
2e-06 3e-06 2.5e-07
2e-06 3.5e-06 2.5e-07
2.25e-06 3.75e-06 0
2e-06 3.5e-06 0
2.5e-06 3.5e-06 5e-07
2.25e-06 3.25e-06 5e-07
2.25e-06 3.75e-06 2.5e-07
2.5e-06 3.5e-06 2.5e-07
2e-06 3.5e-06 5e-07
2.25e-06 3.75e-06 5e-07
3e-06 1e-06 5e-07
2.5e-06 0 0
3e-06 1e-06 0
3e-06 0 0
2.75e-06 5e-07 2.5e-07
2.75e-06 5e-07 0
3e-06 1e-06 2.5e-07
3e-06 5e-07 2.5e-07
2.75e-06 0 0
3e-06 5e-07 0
3e-06 0 5e-07
3e-06 5e-07 5e-07
3e-06 0 2.5e-07
2.75e-06 0 2.5e-07
2.5e-06 0 5e-07
2.75e-06 0 5e-07
2.5e-06 0 2.5e-07
2.75e-06 5e-07 5e-07
0 3.4e-06 0
6.46447e-07 3.69645e-06 2.5e-07
6.46447e-07 3.69645e-06 0
6.46447e-07 3.34645e-06 2.5e-07
0 3.05e-06 0
6.46447e-07 3.34645e-06 0
0 3.4e-06 5e-07
6.46447e-07 3.69645e-06 5e-07
0 3.05e-06 2.5e-07
0 3.4e-06 2.5e-07
6.46447e-07 3.34645e-06 5e-07
0 3.05e-06 5e-07
2e-06 2e-06 0
2e-06 2.5e-06 2.5e-07
2e-06 2.5e-06 0
2.25e-06 2.75e-06 2.5e-07
2.25e-06 2.25e-06 0
2.25e-06 2.75e-06 0
2e-06 2e-06 5e-07
2e-06 2.5e-06 5e-07
2.25e-06 2.25e-06 2.5e-07
2e-06 2e-06 2.5e-07
2.25e-06 2.75e-06 5e-07
2.25e-06 2.25e-06 5e-07
1e-06 5.8e-06 5e-07
2e-06 6.1e-06 0
1e-06 5.8e-06 0
2e-06 6.8e-06 0
1.5e-06 5.95e-06 2.5e-07
1.5e-06 5.95e-06 0
1e-06 5.8e-06 2.5e-07
1.5e-06 6.3e-06 2.5e-07
2e-06 6.45e-06 0
1.5e-06 6.3e-06 0
2e-06 6.8e-06 5e-07
1.5e-06 6.3e-06 5e-07
2e-06 6.8e-06 2.5e-07
2e-06 6.45e-06 2.5e-07
2e-06 6.1e-06 5e-07
2e-06 6.45e-06 5e-07
2e-06 6.1e-06 2.5e-07
1.5e-06 5.95e-06 5e-07
7.07107e-07 4.10711e-06 5e-07
0 4.1e-06 0
7.07107e-07 4.10711e-06 0
3.53553e-07 4.10355e-06 2.5e-07
3.53553e-07 4.10355e-06 0
7.07107e-07 4.10711e-06 2.5e-07
3.53553e-07 3.75355e-06 2.5e-07
0 3.75e-06 0
3.53553e-07 3.75355e-06 0
0 4.1e-06 5e-07
3.53553e-07 4.10355e-06 5e-07
0 3.75e-06 2.5e-07
0 4.1e-06 2.5e-07
3.53553e-07 3.75355e-06 5e-07
0 3.75e-06 5e-07
1.64645e-06 3.14645e-06 2.5e-07
1.64645e-06 3.14645e-06 0
1.64645e-06 2.64645e-06 0
1.64645e-06 3.14645e-06 5e-07
1.64645e-06 2.64645e-06 2.5e-07
1.64645e-06 2.64645e-06 5e-07
1e-06 2e-06 2.5e-07
1e-06 2e-06 0
2e-06 1e-06 2.5e-07
2e-06 1e-06 0
1e-06 2e-06 5e-07
2e-06 1e-06 5e-07
3.5e-06 1e-06 5e-07
3.5e-06 1e-06 0
3.5e-06 0 0
3.25e-06 1e-06 2.5e-07
3.25e-06 1e-06 0
3.5e-06 1e-06 2.5e-07
3.5e-06 5e-07 2.5e-07
3.25e-06 5e-07 0
3.5e-06 5e-07 0
3.25e-06 1e-06 5e-07
3.25e-06 5e-07 2.5e-07
3.5e-06 0 5e-07
3.5e-06 5e-07 5e-07
3.5e-06 0 2.5e-07
3.25e-06 5e-07 5e-07
2.5e-06 1.25e-06 0
3e-06 1.5e-06 2.5e-07
3e-06 1.5e-06 0
2.75e-06 1.125e-06 2.5e-07
2.75e-06 1.625e-06 0
2.75e-06 1.125e-06 0
2.5e-06 1.25e-06 5e-07
2.75e-06 1.125e-06 5e-07
2.5e-06 1.25e-06 2.5e-07
2.75e-06 1.625e-06 2.5e-07
2.75e-06 1.625e-06 5e-07
3e-06 1.5e-06 5e-07
2.25e-06 1.625e-06 2.5e-07
2.25e-06 1.625e-06 0
2.25e-06 6.25e-07 2.5e-07
2.25e-06 6.25e-07 0
2.25e-06 1.625e-06 5e-07
2.25e-06 6.25e-07 5e-07
3.5e-06 2.75e-06 5e-07
4e-06 3e-06 0
3.5e-06 2.75e-06 0
3.5e-06 3.5e-06 0
3.75e-06 2.875e-06 2.5e-07
3.75e-06 2.875e-06 0
3.5e-06 2.75e-06 2.5e-07
3.5e-06 3.125e-06 2.5e-07
3.75e-06 3.25e-06 0
3.5e-06 3.125e-06 0
4e-06 3e-06 5e-07
3.75e-06 2.875e-06 5e-07
3.75e-06 3.25e-06 2.5e-07
4e-06 3e-06 2.5e-07
3.5e-06 3.5e-06 5e-07
3.5e-06 3.125e-06 5e-07
3.5e-06 3.5e-06 2.5e-07
3.75e-06 3.25e-06 5e-07
2.5e-06 3e-06 2.5e-07
2.5e-06 3e-06 0
2.75e-06 3.125e-06 2.5e-07
2.75e-06 3.125e-06 0
2.75e-06 3.125e-06 5e-07
2.5e-06 3e-06 5e-07
2e-06 1.1e-05 5e-07
2e-06 1e-05 0
2e-06 1.1e-05 0
2.5e-06 1e-05 0
2e-06 1.05e-05 2.5e-07
2e-06 1.05e-05 0
2e-06 1.1e-05 2.5e-07
2.25e-06 1.05e-05 2.5e-07
2.25e-06 1e-05 0
2.25e-06 1.05e-05 0
2.5e-06 1e-05 5e-07
2.25e-06 1.05e-05 5e-07
2.5e-06 1e-05 2.5e-07
2.25e-06 1e-05 2.5e-07
2e-06 1e-05 5e-07
2.25e-06 1e-05 5e-07
2e-06 1e-05 2.5e-07
2e-06 1.05e-05 5e-07
2e-06 4.7e-06 5e-07
2e-06 4.7e-06 0
2.5e-06 4.5e-06 0
2e-06 4.35e-06 2.5e-07
2e-06 4.35e-06 0
2e-06 4.7e-06 2.5e-07
2.25e-06 4.6e-06 2.5e-07
2.25e-06 4.25e-06 0
2.25e-06 4.6e-06 0
2.5e-06 4.5e-06 5e-07
2.25e-06 4.6e-06 5e-07
2.5e-06 4.5e-06 2.5e-07
2.25e-06 4.25e-06 2.5e-07
2.25e-06 4.25e-06 5e-07
2e-06 4.35e-06 5e-07
7.07107e-07 4.80711e-06 5e-07
7.07107e-07 4.80711e-06 0
2e-06 5.4e-06 0
7.07107e-07 4.45711e-06 2.5e-07
7.07107e-07 4.45711e-06 0
7.07107e-07 4.80711e-06 2.5e-07
1.35355e-06 5.10355e-06 2.5e-07
1.35355e-06 4.75355e-06 0
1.35355e-06 5.10355e-06 0
7.07107e-07 4.45711e-06 5e-07
1.35355e-06 4.75355e-06 2.5e-07
2e-06 5.4e-06 5e-07
1.35355e-06 5.10355e-06 5e-07
2e-06 5.4e-06 2.5e-07
1.35355e-06 4.75355e-06 5e-07
2.5e-06 5.2e-06 0
2e-06 5.05e-06 2.5e-07
2e-06 5.05e-06 0
2.25e-06 5.3e-06 2.5e-07
2.25e-06 4.95e-06 0
2.25e-06 5.3e-06 0
2.5e-06 5.2e-06 5e-07
2.25e-06 5.3e-06 5e-07
2.5e-06 5.2e-06 2.5e-07
2.25e-06 4.95e-06 2.5e-07
2.25e-06 4.95e-06 5e-07
2e-06 5.05e-06 5e-07
2.5e-06 5.9e-06 5e-07
2.5e-06 5.9e-06 0
2.25e-06 5.65e-06 2.5e-07
2.25e-06 5.65e-06 0
2.5e-06 5.9e-06 2.5e-07
2.5e-06 5.55e-06 2.5e-07
2.5e-06 5.55e-06 0
2.25e-06 5.65e-06 5e-07
2.5e-06 5.55e-06 5e-07
2.5e-06 4.85e-06 2.5e-07
2.5e-06 4.85e-06 0
2.5e-06 4.85e-06 5e-07
3e-06 5e-06 0
2.75e-06 5.1e-06 2.5e-07
2.75e-06 4.75e-06 0
2.75e-06 5.1e-06 0
3e-06 5e-06 5e-07
2.75e-06 5.1e-06 5e-07
3e-06 5e-06 2.5e-07
2.75e-06 4.75e-06 2.5e-07
2.75e-06 4.75e-06 5e-07
3e-06 5.7e-06 5e-07
3e-06 5.7e-06 0
2.75e-06 5.45e-06 2.5e-07
2.75e-06 5.45e-06 0
3e-06 5.7e-06 2.5e-07
3e-06 5.35e-06 2.5e-07
3e-06 5.35e-06 0
2.75e-06 5.45e-06 5e-07
3e-06 5.35e-06 5e-07
3.5e-06 2e-06 0
3.25e-06 2.375e-06 2.5e-07
3.25e-06 2e-06 0
3.25e-06 2.375e-06 0
3.5e-06 2e-06 5e-07
3.25e-06 2.375e-06 5e-07
3.5e-06 2e-06 2.5e-07
3.25e-06 2e-06 2.5e-07
3.25e-06 2e-06 5e-07
1e-06 4.05e-06 2.5e-07
1e-06 4.05e-06 0
1e-06 4.05e-06 5e-07
2.5e-06 1.2e-05 0
2.5e-06 1.15e-05 2.5e-07
2.5e-06 1.15e-05 0
2.25e-06 1.1e-05 2.5e-07
2.25e-06 1.15e-05 0
2.25e-06 1.1e-05 0
2.25e-06 1.1e-05 5e-07
2.25e-06 1.15e-05 2.5e-07
2.5e-06 1.2e-05 5e-07
2.25e-06 1.15e-05 5e-07
2.5e-06 1.2e-05 2.5e-07
2.5e-06 1.15e-05 5e-07
0 4.8e-06 0
5e-07 5.3e-06 2.5e-07
5e-07 5.3e-06 0
8.53553e-07 5.30355e-06 2.5e-07
3.53553e-07 4.80355e-06 0
8.53553e-07 5.30355e-06 0
8.53553e-07 5.30355e-06 5e-07
3.53553e-07 4.80355e-06 2.5e-07
0 4.8e-06 5e-07
3.53553e-07 4.80355e-06 5e-07
0 4.8e-06 2.5e-07
5e-07 5.3e-06 5e-07
0 5.5e-06 0
5e-07 5.65e-06 2.5e-07
5e-07 5.65e-06 0
0 5.15e-06 0
0 5.5e-06 5e-07
5e-07 5.65e-06 5e-07
0 5.15e-06 2.5e-07
0 5.5e-06 2.5e-07
0 5.15e-06 5e-07
2.5e-06 6.6e-06 0
2.25e-06 6.7e-06 2.5e-07
2.25e-06 6.35e-06 0
2.25e-06 6.7e-06 0
2.5e-06 6.6e-06 5e-07
2.25e-06 6.7e-06 5e-07
2.5e-06 6.6e-06 2.5e-07
2.25e-06 6.35e-06 2.5e-07
2.25e-06 6.35e-06 5e-07
2.5e-06 6.25e-06 2.5e-07
2.25e-06 6e-06 0
2.5e-06 6.25e-06 0
2.25e-06 6e-06 2.5e-07
2.5e-06 6.25e-06 5e-07
2.25e-06 6e-06 5e-07
3e-06 6.4e-06 0
2.75e-06 6.5e-06 2.5e-07
2.75e-06 6.15e-06 0
2.75e-06 6.5e-06 0
3e-06 6.4e-06 5e-07
2.75e-06 6.5e-06 5e-07
3e-06 6.4e-06 2.5e-07
2.75e-06 6.15e-06 2.5e-07
2.75e-06 6.15e-06 5e-07
2e-06 5.75e-06 2.5e-07
2e-06 5.75e-06 0
2e-06 5.75e-06 5e-07
2.5e-06 7.3e-06 5e-07
2.5e-06 7.3e-06 0
2.25e-06 7.05e-06 2.5e-07
2.25e-06 7.05e-06 0
2.5e-06 7.3e-06 2.5e-07
2.5e-06 6.95e-06 2.5e-07
2.5e-06 6.95e-06 0
2.25e-06 7.05e-06 5e-07
2.5e-06 6.95e-06 5e-07
0 7.5e-06 5e-07
0 7.5e-06 0
1.29289e-06 6.79289e-06 0
0 6.5e-06 2.5e-07
0 6.5e-06 0
0 7.5e-06 2.5e-07
6.46447e-07 7.14645e-06 2.5e-07
6.46447e-07 6.14645e-06 0
6.46447e-07 7.14645e-06 0
1.29289e-06 6.79289e-06 5e-07
6.46447e-07 7.14645e-06 5e-07
1.29289e-06 6.79289e-06 2.5e-07
6.46447e-07 6.14645e-06 2.5e-07
6.46447e-07 6.14645e-06 5e-07
0 6.5e-06 5e-07
1.07812e-06 9.25e-06 5e-07
2e-06 8.5e-06 0
1.07812e-06 9.25e-06 0
1.53906e-06 8.875e-06 2.5e-07
1.53906e-06 8.875e-06 0
1.07812e-06 9.25e-06 2.5e-07
1.53906e-06 9.625e-06 2.5e-07
2e-06 9.25e-06 0
1.53906e-06 9.625e-06 0
2e-06 8.5e-06 5e-07
1.53906e-06 8.875e-06 5e-07
2e-06 9.25e-06 2.5e-07
2e-06 8.5e-06 2.5e-07
1.53906e-06 9.625e-06 5e-07
2e-06 9.25e-06 5e-07
2.5e-06 8e-06 5e-07
2e-06 7.5e-06 0
2.5e-06 8e-06 0
2.25e-06 7.75e-06 2.5e-07
2.25e-06 7.75e-06 0
2.5e-06 8e-06 2.5e-07
[...]
   <PointData Scalars="Temperature" >
    <DataArray type="Float32" Name="Temperature" format="ascii">
306.445 300 300 300 303.048 300 303.21 303.175 300 300 306.418 306.431 303.161 303.084 306.566 305.643 303.19 305.631 304.713 300 300 300 302.293 300 302.363 302.36 300 300 306.48 304.558 303.226 302.577 304.488 304.905 302.241 304.515 304.667 300 300 302.393 300 302.375 302.327 300 300 304.859 304.818 302.383 302.412 304.707 304.805 300 300 302.645 300 302.412 300 300 304.746 304.726 302.42 302.657 306.658 305.114 303.194 305.023 306.476 300 300 300 303.069 300 303.195 302.942 300 300 306.412 305.604 303.218 303.077 306.48 306.442 303.174 305.473 306.59 300 300 303.255 300 303.169 303.151 300 300 306.622 306.614 303.28 303.257 306.622 306.647 306.402 300 300 300 303.028 300 303.151 303.117 300 300 306.395 306.397 303.092 302.794 306.494 305.664 303.228 305.436 300 302.429 300 302.425 300 300 304.899 304.864 302.436 302.444 304.854 304.884 300 303.126 300 303.246 300 300 306.53 306.562 303.228 303.228 306.585 306.555 304.792 300 300 300 302.59 300 302.418 302.552 300 300 306.705 305.026 303.264 303.238 306.716 306.712 303.283 305.05 304.839 300 300 302.444 300 302.425 302.446 300 300 304.907 304.893 302.449 302.449 304.885 304.907 302.555 300 300 304.981 302.523 304.995 302.315 300 303.187 300 304.609 306.496 306.4 300 300 303.186 300 303.128 303.077 300 300 306.408 303.161 306.396 306.395 303.198 306.403 300 303.099 300 302.98 300 300 306.514 305.656 303.209 303.025 305.539 306.41 303.233 300 303.221 300 306.532 306.509 306.44 300 300 300 302.977 300 303.166 303.134 300 300 306.477 305.655 303.022 303.195 306.48 306.459 303.175 305.597 303.188 300 302.956 300 305.607 306.592 306.461 300 300 300 303.164 300 303.217 303.219 300 300 306.524 306.504 303.191 303.218 306.516 306.525 303.18 306.487 306.692 300 300 303.172 300 303.261 303.312 300 300 306.685 306.695 303.285 303.275 306.677 306.675 304.823 300 300 302.422 300 302.425 302.531 300 300 304.83 302.505 306.711 304.934 303.295 304.945 300 303.243 300 303.332 300 300 306.712 306.719 303.3 303.317 306.71 306.702 306.721 300 303.328 300 303.308 303.255 300 306.725 306.719 303.242 300 306.701 300 303.131 300 300 306.573 305.846 303.221 303.06 305.8 306.61 300 303.129 300 303.247 303.234 300 305.787 306.592 300 303.2 300 300 306.423 306.438 303.17 303.195 306.424 302.425 300 304.755 300 303.161 300 303.23 300 300 306.482 303.204 306.464 306.473 303.111 306.467 300 302.429 300 302.414 300 300 304.798 302.443 304.904 304.886 302.448 304.863 300 302.421 300 300 304.888 304.851 302.446 302.437 304.904 300 303.326 300 300 306.714 306.716 303.304 303.324 306.724 303.256 300 300 303.333 306.72 306.726 300 303.156 300 300 306.633 305.872 303.257 303.138 305.803 303.262 300 306.715 306.689 300 303.311 300 303.292 303.249 300 306.706 306.704 304.563 300 300 302.355 300 302.284 302.311 300 300 304.717 304.548 302.399 302.412 304.806 304.693 304.477 300 300 302.442 300 302.27 302.495 300 300 306.598 304.874 303.119 303.26 304.792 306.557 306.647 300 300 303.304 300 303.264 303.236 300 300 306.668 306.667 303.318 303.281 306.67 306.687 306.576 300 303.229 300 303.25 303.253 300 306.599 306.555 303.186 300 306.692 303.166 300 306.417 300 303.151 300 300 306.639 305.861 303.259 303.137 305.8 302.426 300 304.751 303.255 300 306.638 300 303.249 300 303.294 300 300 306.627 306.636 303.269 303.285 306.626 306.623 300 303.145 300 300 306.628 305.841 303.253 303.13 305.788 300 303.252 300 303.295 300 300 306.632 306.636 303.276 303.294 306.643 306.635 300 303.299 300 300 306.638 306.645 303.277 303.293 306.643 306.538 300 303.081 300 303.216 303.001 300 300 305.71 303.137 306.55 305.578 306.401 300 300 302.971 300 303.15 303.094 300 300 306.438 305.63 303.008 303.169 306.406 305.5 306.513 300 300 300 303.025 300 303.197 303.126 300 300 306.41 305.601 303.033 303.157 306.56 306.532 303.215 305.519 303.172 300 300 306.411 303.203 306.417 306.6 300 303.148 300 303.238 303.245 300 305.743 306.616 306.435 300 300 303.146 300 303.181 302.987 300 300 306.448 306.444 302.958 303.158 305.467 305.67 300 303.282 300 300 306.61 306.61 303.266 303.286 306.626 300 303.152 305.863 300 300 303.187 300 303.188 300 300 306.436 306.448 303.189 303.132 306.429 306.425 303.156 306.442 300 303.28 300 300 306.6 306.61 303.261 303.254 306.592 300 302.979 300 303.123 300 300 306.434 306.437 303.094 302.787 305.632 305.434 303.022 300 300 303.1 306.462 305.51 306.583 300 300 300 303.115 300 303.281 303.274 300 300 306.673 306.636 303.246 303.151 306.642 306.624 303.241 306.662 303.21 300 300 306.451 303.189 306.468 303.101 300 300 306.505 303.208 306.495 300 303.002 300 300 303.082 306.441 306.438 303.204 305.421 303.213 300 303.127 300 300 305.839 303.055 305.792 306.616 303.224 300 306.635 300 303.148 300 300 306.682 305.857 303.264 303.124 305.782 303.222 300 306.623 300 303.15 300 300 306.715 305.859 303.282 303.136 305.799 300 303.228 300 303.154 300 300 306.707 305.868 303.282 303.136 305.8 306.638 303.247 300 306.662 303.283 300 306.683 304.541 300 300 300 302.311 300 302.274 302.291 300 300 304.76 304.512 302.411 302.442 304.971 304.884 302.481 304.593 304.835 300 300 302.453 300 302.43 302.453 300 300 304.929 304.906 302.462 302.469 304.947 304.912 303.198 300 300 306.466 303.21 306.449 300 303.18 300 303.255 300 300 306.572 306.561 303.234 303.269 306.593 306.571 306.697 300 303.3 300 303.264 303.146 300 306.698 306.687 303.278 300 306.713 300 303.322 300 300 306.713 306.72 303.256 303.319 306.718 303.229 300 300 303.318 306.707 306.709 302.439 300 304.788 303.271 300 306.696 306.705 300 303.129 300 303.276 303.275 300 305.788 306.712 300 302.314 300 302.382 300 300 304.586 303.175 306.513 304.396 303.2 306.542 306.421 300 300 303.18 300 303.191 303.136 300 300 306.443 303.205 306.428 306.425 303.168 306.44 306.708 300 303.315 300 303.249 303.189 300 306.72 306.713 306.678 300 303.147 300 303.262 303.267 300 300 305.745 303.143 306.694 305.84 303.208 300 306.593 306.686 300 303.306 300 303.238 303.177 300 300 306.704 303.317 306.699 306.713 304.808 300 300 300 302.44 300 302.437 302.44 300 300 304.899 304.876 302.445 302.45 304.904 304.903 302.45 304.88 303.305 300 306.688 303.24 300 303.289 300 306.632 306.633 306.483 300 300 303.216 300 303.216 303.216 300 300 306.512 303.119 306.501 306.503 303.231 306.505 300 303.233 300 300 306.527 306.528 303.223 303.229 306.551 300 300 303.17 300 303.11 300 300 306.4 306.404 303.154 303.086 306.395 306.396 303.085 306.401 306.649 300 303.29 300 303.206 303.161 300 306.671 306.669 306.443 300 303.132 300 303.211 303.226 300 300 306.476 303.211 306.5 306.479 304.785 300 300 302.429 300 302.425 302.425 300 300 304.845 304.854 302.407 302.43 304.877 304.864 306.396 300 303.035 300 303.158 303.14 300 300 305.485 303.166 306.396 305.695 300 302.444 300 300 304.802 304.802 302.448 302.438 304.89 306.504 300 300 303.213 300 303.228 303.236 300 300 306.537 306.528 303.213 303.184 306.505 306.499 304.668 300 300 302.393 300 302.375 302.329 300 300 304.734 304.703 302.377 302.391 304.801 304.812 300 300 303.042 300 302.998 300 300 306.568 305.72 303.244 303.127 306.514 306.542 303.206 305.532 302.994 300 303.201 300 300 305.651 303.073 306.655 305.658 302.437 300 304.789 300 302.391 300 302.382 300 300 304.358 304.641 302.197 302.249 304.539 304.668 302.647 300 302.411 300 300 304.741 302.616 305.155 305.021 300 303.174 300 300 302.398 306.489 306.488 303.191 304.515 303.175 300 300 303.063 306.57 305.649 303.234 300 303.263 300 306.589 306.548 303.252 300 306.561 302.449 300 300 302.456 304.913 304.897 302.444 300 304.807 300 302.355 300 300 304.466 304.615 302.251 302.385 304.452 300 303.106 305.688 304.575 300 300 302.312 300 302.29 302.399 300 300 304.66 303.127 306.449 304.459 303.17 306.455 304.568 300 302.33 300 302.286 302.355 300 300 304.698 303.171 304.708 306.444 300 302.317 300 302.297 300 300 304.666 302.39 304.519 304.572 302.269 304.696 303.116 300 303.193 300 300 306.435 303.172 306.453 306.463 306.618 300 300 303.008 300 303.24 303.203 300 300 306.505 305.722 303.106 303.223 306.65 305.689 300 303.11 300 303.219 300 300 306.459 306.48 303.2 303.17 306.5 306.474 303.187 300 306.44 300 303.125 305.688 306.585 300 303.258 300 303.168 303.148 300 300 306.609 303.28 306.617 306.64 303.221 300 303.044 300 300 306.586 303.082 305.547 305.681 303.127 300 306.428 302.554 300 303.124 300 300 304.977 302.525 306.558 304.983 303.249 300 306.58 303.158 300 306.537 300 303.178 306.399 300 303.184 306.436 302.952 300 305.642 303.083 300 306.409 303.144 300 300 303.024 305.663 306.494 300 303.21 306.519 302.279 300 300 304.56 302.309 304.647 300 302.508 305.016 303.226 300 306.604 300 303.185 300 300 303.1 306.48 305.592 303.116 306.462 300 303.181 306.484 303.178 300 306.43 303.123 300 306.493 303.203 300 306.538 300 302.191 304.46 303.213 300 306.443 303.144 300 306.448 300 302.291 300 300 304.556 304.57 302.324 302.28 304.683 303.186 300 300 306.498 303.035 305.687 302.372 300 302.328 300 304.612 304.566 303.203 300 306.612 300 302.788 305.634 303.181 300 306.407 302.978 300 300 305.64 303.111 306.403 300 303.223 306.502 303.201 300 300 306.506 302.35 304.662 302.531 300 304.837 302.632 300 305.217 302.523 300 304.986 302.44 300 304.886 300 302.449 304.903 302.281 300 304.511 302.671 300 302.594 300 305.208 305.19 302.7 300 304.967 302.62 300 305.205 302.561 300 302.581 300 304.978 304.967 302.639 300 302.681 300 305.195 305.142 302.677 300 305.098 302.632 300 305.18 302.665 300 305.077 303.159 300 306.507 303.23 300 303.177 300 306.529 306.539 302.255 300 300 304.506 302.347 304.554 302.271 300 304.568 302.274 300 304.559 306.49 306.539 306.467 306.455 306.472 306.479 306.444 306.393 306.613 307.278 306.59 307.328 309.859 306.912 307.278 306.722 306.574 308.96 306.526 306.57 309.206 308.711 306.846 309.32 309.594 307.286 307.136 307.275 309.845 309.797 307.297 307.339 309.738 309.875 306.944 307.135 309.658 309.643 307.155 306.974 306.717 308.967 306.686 308.896 306.535 306.374 306.508 306.449 306.462 307.256 306.437 306.467 306.528 306.489 306.504 307.385 306.445 306.4 306.424 306.42 306.442 306.444 306.418 306.665 306.552 307.194 306.523 307.395 307.301 307.304 309.853 309.771 307.351 307.369 309.791 309.819 309.735 307.149 307.252 307.119 306.77 309.221 306.737 306.744 306.787 306.779 306.75 309.16 309.859 307.36 307.354 307.356 309.836 309.854 307.363 307.367 309.823 309.862 306.641 306.976 306.616 306.591 308.678 306.851 306.6 306.567 306.617 308.372 306.963 306.533 309.134 306.573 306.434 306.446 306.559 307.196 306.536 306.483 307.328 306.457 306.494 306.453 306.469 306.484 306.52 307.203 306.498 306.498 306.527 306.507 306.504 307.287 306.672 306.615 306.648 306.601 307.361 306.639 309.885 307.326 307.341 307.168 309.88 307.138 306.781 309.447 306.745 309.424 306.767 306.728 306.738 306.704 306.628 307.706 306.599 306.654 306.74 307.617 306.711 306.756 306.665 306.718 306.637 306.618 307.754 306.647 307.192 309.789 307.329 307.257 309.776 307.354 309.816 309.82 307.357 309.808 307.303 309.861 309.812 307.366 307.364 309.872 306.769 306.748 306.74 306.741 306.688 307.729 306.66 306.734 306.776 307.778 306.748 306.776 309.144 307.04 306.868 306.844 309.504 309.238 307.075 307.183 309.646 309.328 309.014 306.738 306.749 306.71 306.671 308.424 306.587 306.636 306.581 308.481 306.548 306.617 306.744 306.731 306.715 306.716 306.695 307.653 306.666 306.733 307.763 306.758 307.14 309.679 306.664 306.693 306.7 306.697 306.673 306.704 306.683 307.701 306.655 306.715 307.762 306.725 306.661 306.69 306.586 306.464 306.563 306.612 306.624 307.369 306.6 306.575 306.571 306.596 306.548 307.375 306.445 306.406 306.423 306.431 306.493 307.163 306.414 306.467 306.453 307.3 306.56 306.54 306.537 306.557 306.457 307.236 306.5 306.435 306.61 306.58 306.585 307.373 306.655 306.642 306.627 306.642 307.675 306.671 306.482 306.469 306.458 306.459 306.502 306.493 306.469 306.475 306.466 307.345 306.445 307.179 306.649 306.718 306.678 307.654 306.746 306.774 306.44 306.461 306.483 306.484 306.458 306.629 306.442 307.176 306.419 307.362 306.41 306.488 306.51 307.316 306.393 306.462 306.484 306.486 306.464 307.363 306.683 306.643 306.654 306.696 306.697 307.701 306.669 306.646 306.654 307.611 306.625 306.671 306.694 306.662 306.664 306.713 306.738 307.65 306.709 306.712 307.75 306.69 306.665 306.65 306.636 306.715 306.771 307.652 306.742 306.731 306.688 307.761 306.659 306.678 306.665 306.738 306.763 307.728 306.734 306.729 307.774 306.693 306.688 306.718 309.273 306.926 306.907 306.794 309.645 309.122 307.182 307.312 310.002 309.823 307.477 309.178 309.811 307.397 307.327 307.376 309.907 309.847 307.41 307.437 309.954 309.898 306.739 306.769 307.203 309.776 306.761 306.715 306.732 306.738 307.762 306.767 306.756 306.544 306.668 308.933 306.58 306.627 306.573 309.125 306.543 306.615 306.722 306.751 306.733 306.644 306.705 306.72 306.625 307.675 306.705 306.597 306.749 307.703 306.619 306.648 309.677 307.336 307.228 307.315 309.872 309.775 307.376 307.376 309.83 309.871 307.361 309.803 309.648 307.315 307.199 307.301 309.816 309.789 307.314 307.332 309.811 309.765 306.451 306.419 306.426 306.42 306.55 307.353 306.265 306.527 306.44 306.443 306.421 307.187 307.203 309.7 309.699 307.335 307.228 309.802 309.593 307.28 307.138 307.259 309.748 309.713 307.215 307.298 309.818 309.787 306.585 306.52 306.562 306.609 306.616 307.346 306.592 306.568 306.567 306.59 306.541 307.428 306.654 306.682 306.553 307.405 306.687 306.529 306.707 307.57 307.174 309.633 306.573 306.731 306.53 306.655 309.315 308.83 306.827 306.925 309.306 308.927 306.945 307.146 309.641 306.996 306.708 308.949 306.677 308.896 306.529 306.567 306.562 306.564 306.523 309.025 306.596 306.678 306.621 307.561 307.34 307.367 309.827 309.792 307.241 309.744 306.516 306.463 306.478 306.815 309.414 309.041 306.917 306.598 306.493 309.212 306.46 306.5 306.596 306.618 306.621 307.493 309.359 306.876 306.966 306.611 306.546 308.968 306.495 306.504 306.518 309.167 306.481 306.531 309.353 306.903 306.955 306.866 306.549 308.936 306.486 306.5 308.881 306.526 306.856 306.956 306.506 308.942 306.78 306.464 309.358 309.361 306.922 308.996 306.665 306.607 306.643 306.675 306.554 307.36 306.62 306.53 306.7 307.492 306.491 306.281 306.505 306.514 306.486 307.173 306.609 306.531 306.634 306.426 306.503 307.43 306.481 307.274 306.452 306.475 306.636 306.971 306.611 306.586 308.675 306.831 306.598 306.613 306.563 308.382 306.561 306.584 306.531 306.552 306.448 306.42 306.425 306.618 307.137 306.443 306.433 306.456 306.519 306.459 307.268 306.542 306.914 309.315 306.814 308.925 306.962 308.593 306.629 306.655 306.295 306.486 306.526 307.4 306.503 306.507 306.454 306.478 306.529 306.553 306.562 306.588 306.466 306.498 306.502 306.976 306.46 309.114 306.471 306.494 306.922 309.304 309.327 306.854 306.926 308.925 306.522 306.547 306.457 307.254 306.76 306.775 308.978 306.672 306.748 306.711 306.706 309.095 306.637 306.662 306.42 306.443 306.444 306.629 306.418 307.173 306.569 307.208 306.429 306.453 306.525 306.549 306.545 306.582 306.9 309.056 306.517 306.539 307.05 306.735 306.757 306.771 306.723 309.504 307.089 308.862 306.705 306.738 307.13 309.37 306.749 306.787 307.358 309.84 307.356 309.787 306.788 309.161 307.029 307.086 308.72 306.724 306.758 308.876 306.837 306.667 306.726 306.698 306.696 308.974 307.063 306.763 308.911 306.717 306.728 306.749 307.065 307.098 306.774 309.3 306.738 306.742 309.314 306.771 307.054 307.036 306.769 308.985 306.743 306.737 308.976 306.775 307.034 309.03 307.027 306.747 308.924 306.729 306.715 306.76 307.008 309.01 306.699 306.731 306.65 306.678 306.53 306.554 306.564 306.589 306.506 306.527 306.644 306.673 306.52 306.555 306.822 309.195 306.685 309.028 306.528 306.562 306.984 309.387 306.475 306.511 306.863 309.175 312.206 309.564 309.422 309.475 312.221 312.237 309.393 309.648 312.282 312.28 309.499 312.257 315.104 311.683 312.42 311.318 312.346 313.694 309.492 311.12 313.884 313.496 311.53 313.96 315.07 312.408 312.169 312.332 315.147 315.125 312.476 312.413 315.121 315.139 311.573 312.246 315.043 315.065 312.244 311.815 314.997 315.027 310.816 315.037 312.276 309.628 309.409 309.648 312.235 312.297 309.405 309.45 312.206 312.241 309.429 312.283 312.557 309.635 306.652 309.873 310.156 306.684 312.242 312.3 309.955 309.566 312.913 312.817 312.245 309.619 309.389 309.493 312.273 312.276 309.434 309.589 312.294 312.306 309.464 312.311 312.232 312.338 314.977 314.273 312.45 312.424 315.106 314.417 309.693 309.562 306.596 306.619 312.371 312.443 309.519 309.579 312.351 312.315 315.046 311.719 312.288 311.917 314.968 315.013 310.9 310.697 314.852 313.96 310.9 314.06 314.979 312.388 312.329 312.303 314.994 314.992 312.406 312.36 314.988 314.993 310.885 313.406 310.578 312.98 311.31 309.609 313.523 312.424 312.307 309.386 306.443 309.507 309.431 306.436 312.234 309.389 312.267 312.274 309.408 312.235 309.428 309.612 312.31 312.308 309.493 309.57 312.291 312.239 309.506 306.572 309.488 306.549 312.311 312.334 312.205 309.605 309.386 309.424 312.297 312.28 309.559 309.474 312.181 312.2 309.398 312.266 309.575 309.593 312.232 312.26 312.486 309.604 309.565 309.509 306.566 306.545 312.279 312.368 309.478 309.515 312.541 312.364 309.643 312.519 314.959 310.963 310.994 310.805 306.719 306.74 314.945 314.96 310.747 310.661 314.966 314.985 314.96 312.389 312.37 312.066 314.976 312.075 314.886 314.936 310.842 314.941 310.659 310.494 306.754 306.765 314.926 313.923 310.864 310.728 314.941 313.978 314.844 310.753 306.77 310.801 310.641 314.86 313.699 310.882 314.944 310.958 314.917 314.93 310.663 310.886 314.928 314.912 310.863 310.796 310.84 314.918 314.924 309.388 306.461 306.471 312.241 312.199 309.412 309.367 312.206 312.232 314.403 309.529 309.45 306.511 306.534 312.333 309.495 312.342 312.386 309.494 312.333 312.345 312.183 314.336 312.302 315.059 314.32 312.355 315.066 312.405 315.069 315.068 312.435 312.433 315.07 310.496 306.769 306.761 314.825 313.911 310.841 310.705 314.837 310.855 306.773 310.797 314.842 314.854 310.944 314.822 314.83 310.731 310.923 314.83 310.902 314.874 314.926 310.773 306.749 310.816 310.636 314.942 313.694 313.61 311.602 311.37 311.479 315.002 313.509 312.139 312.253 315.044 313.463 313.602 310.705 311.259 310.693 312.491 313.138 309.753 309.72 313.179 312.578 314.903 310.658 306.713 310.737 310.856 306.736 314.922 314.914 310.797 310.864 314.923 314.933 312.306 309.549 306.591 309.597 309.63 306.641 312.334 312.37 310.96 314.955 309.373 306.449 312.211 310.64 314.815 313.954 310.777 310.84 314.819 312.274 315.034 310.836 314.826 310.64 310.418 306.667 306.678 314.919 313.867 310.825 310.638 314.913 313.681 310.933 314.903 314.911 310.749 310.935 314.912 310.64 310.414 306.684 306.679 314.822 313.86 310.802 310.62 314.816 313.676 310.724 306.684 306.688 314.817 314.822 310.756 310.686 314.815 312.206 309.631 309.511 309.699 312.268 309.538 312.292 312.261 312.252 309.612 309.395 309.415 312.338 312.33 309.586 309.476 312.246 312.314 312.311 309.509 309.518 309.505 312.226 312.304 309.561 309.396 312.269 312.28 309.483 312.272 309.356 306.455 306.445 312.204 309.352 312.195 314.893 310.776 310.687 310.835 314.897 314.907 312.325 309.534 309.409 309.569 312.312 312.337 309.6 309.458 312.312 312.297 310.714 306.667 306.654 314.899 314.903 310.768 310.697 314.897 310.643 313.962 309.503 306.478 309.482 306.49 312.48 312.372 309.545 309.601 312.612 312.583 309.629 312.419 310.716 306.632 306.653 314.91 314.918 310.694 310.579 314.91 309.584 309.547 312.372 312.367 309.499 309.592 312.334 312.332 309.607 309.483 312.31 312.299 312.422 310.178 309.676 309.967 306.703 306.669 314.959 313.128 310.685 310.854 314.923 312.858 310.717 314.937 309.361 306.5 306.488 312.166 309.374 312.163 309.498 306.55 312.314 309.46 312.297 309.604 309.488 312.338 312.346 309.463 312.33 310.831 310.959 314.929 310.883 314.914 314.924 310.597 313.676 310.644 314.945 313.964 310.847 310.865 314.931 310.591 313.671 310.641 314.84