DF-ISE text

Info {
  version = 1.1
  type    = boundary
  dimension   = 3
  nb_vertices = 12
  nb_edges    = 20
  nb_faces    = 22
  nb_elements = 2
  nb_regions  = 2
  regions     = [ "Bond_oxide" "Bottom_silicon" ]
  materials   = [ Oxide Silicon ]
}

Data {

  CoordSystem {
    translate = [  0.000000000000000e+00 0.000000000000000e+00 0.000000000000000e+00 ]
    transform = [  1.000000000000000e+00 0.000000000000000e+00 0.000000000000000e+00
 0.000000000000000e+00 1.000000000000000e+00 0.000000000000000e+00
 0.000000000000000e+00 0.000000000000000e+00 1.000000000000000e+00
 ]
  }

  Vertices (12) {
   -70  -70    0
   -70   70    0
    70  -70    0
    70   70    0
   -70  -70   10
   -70   70   10
    70  -70   10
    70   70   10
   -70  -70   12
   -70   70   12
    70  -70   12
    70   70   12
  }

  Edges (31) {
 0 1
 1 3
 3 2
 2 0
 0 3
 4 5
 5 7
 7 6
 6 4
 4 7
 8 9
 9 11
 11 10
 10 8
 8 11
 1 4
 1 7
 3 6
 0 6
 5 8
 5 11
 7 10
 4 10
 1 5
 3 7
 2 6
 0 4
 5 9
 7 11
 6 10
 4 8
  }

  Faces (22) {
 3 0 1 -5
 3 4 2 3
 3 0 15 -27
 3 15 5 -24
 3 1 24 -17
 3 16 -7 -24
 3 2 25 -18
 3 17 -8 -25
 3 3 18 -26
 3 18 8 -27
 3 5 6 -10
 3 9 7 8
 3 5 19 -31
 3 19 10 -28
 3 6 28 -21
 3 27 11 -21
 3 7 29 -22
 3 21 -13 -29
 3 8 22 -30
 3 30 -14 -23
 3 10 11 -15
 3 14 12 13
  }

  Locations (22) {
eeeeeeeeeeeeeeeeeeeeee
  }

  Elements (2) {
 10 12  0  1  2  3  4  5  6  7  8  9 10 11
 10 12 10 11 12 13 14 15 16 17 18 19 20 21
  }

  Region ("Bond_oxide") {
    material = Oxide
    Elements (1) {
 0
    }
  }

  Region ("Bottom_silicon") {
    material = Silicon
    Elements (1) {
 1
    }
  }

}
